 vasp.5.4.1 24Jun15 (build Jun 17 2016 15:57:28) complex                        
  
 executed on           IFC91_ompi date 2016.11.24  13:22:17
 running on   16 total cores
 distrk:  each k-point on   16 cores,    1 groups
 distr:  one band on NCORES_PER_BAND=  16 cores,    1 groups


--------------------------------------------------------------------------------------------------------


 INCAR:
 POTCAR:    PAW_PBE Bi_pv 29Jan08 GW ready        
 POTCAR:   PAW_PBE Se 06Sep2000                   

 ----------------------------------------------------------------------------- 
|                                                                             |
|           W    W    AA    RRRRR   N    N  II  N    N   GGGG   !!!           |
|           W    W   A  A   R    R  NN   N  II  NN   N  G    G  !!!           |
|           W    W  A    A  R    R  N N  N  II  N N  N  G       !!!           |
|           W WW W  AAAAAA  RRRRR   N  N N  II  N  N N  G  GGG   !            |
|           WW  WW  A    A  R   R   N   NN  II  N   NN  G    G                |
|           W    W  A    A  R    R  N    N  II  N    N   GGGG   !!!           |
|                                                                             |
|      For optimal performance we recommend to set                            |
|        NCORE= 4 - approx SQRT( number of cores)                             |
|      NCORE specifies how many cores store one orbital (NPAR=cpu/NCORE).     |
|      This setting can  greatly improve the performance of VASP for DFT.     |
|      The default, NPAR=number of cores might be grossly inefficient         |
|      on modern multi-core architectures or massively parallel machines.     |
|      Do your own testing !!!!                                               |
|      Unfortunately you need to use the default for GW and RPA calculations. |
|      (for HF NCORE is supported but not extensively tested yet)             |
|                                                                             |
 ----------------------------------------------------------------------------- 

 POTCAR:    PAW_PBE Bi_pv 29Jan08 GW ready        
   VRHFIN =Bi:                                                                  
   LEXCH  = PE                                                                  
   EATOM  =  4638.5322 eV,  340.9225 Ry                                         
                                                                                
   TITEL  = PAW_PBE Bi_pv 29Jan08 GW ready                                      
   LULTRA =        F    use ultrasoft PP ?                                      
   IUNSCR =        1    unscreen: 0-lin 1-nonlin 2-no                           
   RPACOR =    2.200    partial core radius                                     
   POMASS =  208.980; ZVAL   =   21.000    mass and valenz                      
   RCORE  =    2.500    outmost cutoff radius                                   
   RWIGS  =    3.090; RWIGS  =    1.635    wigner-seitz radius (au A)           
   ENMAX  =  309.187; ENMIN  =  231.890 eV                                      
   ICORE  =        3    local potential                                         
   LCOR   =        T    correct aug charges                                     
   LPAW   =        T    paw PP                                                  
   EAUG   =  442.899                                                            
   DEXC   =    0.000                                                            
   RMAX   =    2.622    core radius for proj-oper                               
   RAUG   =    1.300    factor for augmentation sphere                          
   RDEP   =    2.650    radius for radial grids                                 
   QCUT   =   -4.767; QGAM   =    9.534    optimization parameters              
                                                                                
   Description                                                                  
     l     E      TYP  RCUT    TYP  RCUT                                        
     1   -95.81     23  1.900                                                   
     1    -4.57     23  1.900                                                   
     2   -27.08     23  2.200                                                   
     2   -28.44     23  2.200                                                   
     0   -14.47     23  2.500                                                   
     0     6.80     23  2.500                                                   
     3    -1.36      7  2.200                                                   
  local pseudopotential read in
  partial core-charges read in
  atomic valenz-charges read in
  non local Contribution for L=           1  read in
    real space projection operators read in
  non local Contribution for L=           1  read in
    real space projection operators read in
  non local Contribution for L=           2  read in
    real space projection operators read in
  non local Contribution for L=           2  read in
    real space projection operators read in
  non local Contribution for L=           0  read in
    real space projection operators read in
  non local Contribution for L=           0  read in
    real space projection operators read in
    PAW grid and wavefunctions read in
 
   number of l-projection  operators is LMAX  =           6
   number of lm-projection operators is LMMAX =          18
 
 POTCAR:   PAW_PBE Se 06Sep2000                   
   VRHFIN =Se: s2p4                                                             
   LEXCH  = PE                                                                  
   EATOM  =   256.9644 eV,   18.8864 Ry                                         
                                                                                
   TITEL  = PAW_PBE Se 06Sep2000                                                
   LULTRA =        F    use ultrasoft PP ?                                      
   IUNSCR =        1    unscreen: 0-lin 1-nonlin 2-no                           
   RPACOR =    1.900    partial core radius                                     
   POMASS =   78.960; ZVAL   =    6.000    mass and valenz                      
   RCORE  =    2.100    outmost cutoff radius                                   
   RWIGS  =    2.200; RWIGS  =    1.164    wigner-seitz radius (au A)           
   ENMAX  =  211.534; ENMIN  =  158.651 eV                                      
   ICORE  =        3    local potential                                         
   LCOR   =        T    correct aug charges                                     
   LPAW   =        T    paw PP                                                  
   EAUG   =  446.842                                                            
   DEXC   =    -.031                                                            
   RMAX   =    3.170    core radius for proj-oper                               
   RAUG   =    1.300    factor for augmentation sphere                          
   RDEP   =    2.177    radius for radial grids                                 
   QCUT   =   -3.943; QGAM   =    7.886    optimization parameters              
                                                                                
   Description                                                                  
     l     E      TYP  RCUT    TYP  RCUT                                        
     0   .000     23  2.100                                                     
     0   .000     23  2.100                                                     
     1   .000     23  2.100                                                     
     1   .000     23  2.100                                                     
     2   .000     23  2.100                                                     
     3  -.100      7  2.100                                                     
  local pseudopotential read in
  partial core-charges read in
  atomic valenz-charges read in
  non local Contribution for L=           0  read in
    real space projection operators read in
  non local Contribution for L=           0  read in
    real space projection operators read in
  non local Contribution for L=           1  read in
    real space projection operators read in
  non local Contribution for L=           1  read in
    real space projection operators read in
  non local Contribution for L=           2  read in
    real space projection operators read in
    PAW grid and wavefunctions read in
 
   number of l-projection  operators is LMAX  =           5
   number of lm-projection operators is LMMAX =          13
 

 ----------------------------------------------------------------------------- 
|                                                                             |
|  ADVICE TO THIS USER RUNNING 'VASP/VAMP'   (HEAR YOUR MASTER'S VOICE ...):  |
|                                                                             |
|      You have a (more or less) 'small supercell' and for smaller cells      |
|      it is recommended  to use the reciprocal-space projection scheme!      |
|      The real space optimization is not  efficient for small cells and it   |
|      is also less accurate ...                                              |
|      Therefore set LREAL=.FALSE. in the  INCAR file                         |
|                                                                             |
 ----------------------------------------------------------------------------- 

 Optimization of the real space projectors (new method)

 maximal supplied QI-value         = 15.12
 optimisation between [QCUT,QGAM] = [ 10.73, 21.47] = [ 32.26,129.05] Ry 
 Optimized for a Real-space Cutoff    1.44 Angstroem

   l    n(q)    QCUT    max X(q) W(low)/X(q) W(high)/X(q)  e(spline) 
   1      9    10.734     2.850    0.13E-03    0.22E-03    0.28E-06
   1      9    10.734     6.992    0.16E-03    0.36E-03    0.33E-06
   2      8    10.734    50.816    0.52E-04    0.12E-03    0.13E-06
   2      8    10.734    51.435    0.54E-04    0.12E-03    0.13E-06
   0      9    10.734    20.448    0.23E-03    0.26E-04    0.20E-06
   0      9    10.734     8.797    0.34E-03    0.39E-04    0.29E-06
 Optimization of the real space projectors (new method)

 maximal supplied QI-value         = 17.95
 optimisation between [QCUT,QGAM] = [ 10.59, 21.36] = [ 31.42,127.80] Ry 
 Optimized for a Real-space Cutoff    1.28 Angstroem

   l    n(q)    QCUT    max X(q) W(low)/X(q) W(high)/X(q)  e(spline) 
   0      8    10.592     6.499    0.15E-04    0.12E-04    0.11E-07
   0      8    10.592    52.623    0.14E-03    0.24E-03    0.47E-07
   1      8    10.592     4.229    0.15E-04    0.48E-04    0.38E-07
   1      8    10.592    29.991    0.48E-03    0.71E-04    0.83E-07
   2      7    10.592     3.719    0.14E-03    0.26E-03    0.49E-07
  PAW_PBE Bi_pv 29Jan08 GW ready        :
 energy of atom  1       EATOM=-4638.5322
 kinetic energy error for atom=    0.0832 (will be added to EATOM!!)
 PAW_PBE Se 06Sep2000                   :
 energy of atom  2       EATOM= -256.9644
 kinetic energy error for atom=    0.0012 (will be added to EATOM!!)
 
 
 POSCAR: i2a=[Bi,Se] ; Bi2Se3.su.if.static.100   
  positions in direct lattice
  No initial velocities read in
 exchange correlation table for  LEXCH =        8
   RHO(1)=    0.500       N(1)  =     2000
   RHO(2)=  100.500       N(2)  =     4000
 


--------------------------------------------------------------------------------------------------------


 ion  position               nearest neighbor table
   1  0.398  0.398  0.398-   5 2.89   5 2.89   5 2.89   3 3.11   3 3.11   3 3.11
   2  0.602  0.602  0.602-   4 2.89   4 2.89   4 2.89   3 3.11   3 3.11   3 3.11
   3  0.000  0.000  0.000-   2 3.11   1 3.11   2 3.11   1 3.11   2 3.11   1 3.11
   4  0.216  0.216  0.216-   2 2.89   2 2.89   2 2.89
   5  0.784  0.784  0.784-   1 2.89   1 2.89   1 2.89
 
  LATTYP: Found a trigonal (rhomboedric) cell.
 ALAT       =    10.2728730000
 COS(alpha) =     0.9166474602
  
  Lattice vectors:
  
 A1 = (   4.1060340000,   0.0000000000,   9.4166030000)
 A2 = (   1.9637340000,   3.6060030000,   9.4166030000)
 A3 = (   0.0000000000,   0.0000000000,  10.2728730000)


Analysis of symmetry for initial positions (statically):
=====================================================================
 Subroutine PRICEL returns:
 Original cell was already a primitive cell.
 

 Routine SETGRP: Setting up the symmetry group for a 
 trigonal (rhombohedral) supercell.


 Subroutine GETGRP returns: Found 12 space group operations
 (whereof 12 operations were pure point group operations)
 out of a pool of 12 trial point group operations.


The static configuration has the point symmetry D_3d.


Analysis of symmetry for dynamics (positions and initial velocities):
=====================================================================
 Subroutine PRICEL returns:
 Original cell was already a primitive cell.
 

 Routine SETGRP: Setting up the symmetry group for a 
 trigonal (rhombohedral) supercell.


 Subroutine GETGRP returns: Found 12 space group operations
 (whereof 12 operations were pure point group operations)
 out of a pool of 12 trial point group operations.


The dynamic configuration has the point symmetry D_3d.
 
 
 KPOINTS: Automatic Mesh                          

Automatic generation of k-mesh.
Space group operators:
 irot       det(A)        alpha          n_x          n_y          n_z        tau_x        tau_y        tau_z
    1     1.000000     0.000000     1.000000     0.000000     0.000000     0.000000     0.000000     0.000000
    2    -1.000000     0.000000     1.000000     0.000000     0.000000     0.000000     0.000000     0.000000
    3     1.000000   180.000000     0.468184     0.859725    -0.204148     0.000000     0.000000     0.000000
    4    -1.000000   180.000000     0.468184     0.859725    -0.204148     0.000000     0.000000     0.000000
    5     1.000000   120.000000    -0.202663    -0.120400    -0.971819     0.000000     0.000000     0.000000
    6    -1.000000   120.000000    -0.202663    -0.120400    -0.971819     0.000000     0.000000     0.000000
    7     1.000000   179.999999     0.510756    -0.859725     0.000000     0.000000     0.000000     0.000000
    8    -1.000000   179.999999     0.510756    -0.859725     0.000000     0.000000     0.000000     0.000000
    9     1.000000   120.000000     0.202663     0.120400     0.971819     0.000000     0.000000     0.000000
   10    -1.000000   120.000000     0.202663     0.120400     0.971819     0.000000     0.000000     0.000000
   11     1.000000   180.000000     0.978940    -0.000000    -0.204148     0.000000     0.000000     0.000000
   12    -1.000000   180.000000     0.978940    -0.000000    -0.204148     0.000000     0.000000     0.000000
 
 Subroutine IBZKPT returns following result:
 ===========================================
 
 Found     65 irreducible k-points:
 
 Following reciprocal coordinates:
            Coordinates               Weight
  0.000000  0.000000  0.000000      1.000000
  0.125000 -0.000000  0.000000      6.000000
  0.250000 -0.000000  0.000000      6.000000
  0.375000  0.000000  0.000000      6.000000
  0.500000 -0.000000  0.000000      3.000000
  0.125000  0.125000  0.000000      6.000000
  0.250000  0.125000  0.000000     12.000000
  0.375000  0.125000  0.000000     12.000000
  0.500000  0.125000  0.000000     12.000000
 -0.375000  0.125000  0.000000     12.000000
 -0.250000  0.125000  0.000000     12.000000
 -0.125000  0.125000  0.000000      6.000000
  0.250000  0.250000  0.000000      6.000000
  0.375000  0.250000  0.000000     12.000000
  0.500000  0.250000  0.000000     12.000000
 -0.375000  0.250000  0.000000     12.000000
 -0.250000  0.250000  0.000000      6.000000
  0.375000  0.375000  0.000000      6.000000
  0.500000  0.375000  0.000000     12.000000
 -0.375000  0.375000  0.000000      6.000000
  0.500000  0.500000  0.000000      3.000000
  0.125000  0.125000  0.125000      2.000000
  0.250000  0.125000  0.125000      6.000000
  0.375000  0.125000  0.125000      6.000000
  0.500000  0.125000  0.125000      6.000000
 -0.375000  0.125000  0.125000      6.000000
 -0.250000  0.125000  0.125000      6.000000
 -0.125000  0.125000  0.125000      6.000000
  0.250000  0.250000  0.125000      6.000000
  0.375000  0.250000  0.125000     12.000000
  0.500000  0.250000  0.125000     12.000000
 -0.375000  0.250000  0.125000     12.000000
 -0.250000  0.250000  0.125000     12.000000
 -0.125000  0.250000  0.125000     12.000000
  0.375000  0.375000  0.125000      6.000000
  0.500000  0.375000  0.125000     12.000000
 -0.375000  0.375000  0.125000     12.000000
 -0.250000  0.375000  0.125000     12.000000
 -0.125000  0.375000  0.125000     12.000000
  0.500000  0.500000  0.125000      6.000000
 -0.375000  0.500000  0.125000     12.000000
 -0.250000  0.500000  0.125000     12.000000
 -0.125000  0.500000  0.125000      6.000000
 -0.375000 -0.375000  0.125000      6.000000
 -0.250000 -0.375000  0.125000     12.000000
 -0.250000 -0.250000  0.125000      6.000000
  0.250000  0.250000  0.250000      2.000000
  0.375000  0.250000  0.250000      6.000000
  0.500000  0.250000  0.250000      6.000000
 -0.375000  0.250000  0.250000      6.000000
 -0.250000  0.250000  0.250000      6.000000
  0.375000  0.375000  0.250000      6.000000
  0.500000  0.375000  0.250000     12.000000
 -0.375000  0.375000  0.250000     12.000000
 -0.250000  0.375000  0.250000     12.000000
  0.500000  0.500000  0.250000      6.000000
 -0.375000  0.500000  0.250000     12.000000
 -0.250000  0.500000  0.250000      6.000000
 -0.375000 -0.375000  0.250000      6.000000
  0.375000  0.375000  0.375000      2.000000
  0.500000  0.375000  0.375000      6.000000
 -0.375000  0.375000  0.375000      6.000000
  0.500000  0.500000  0.375000      6.000000
 -0.375000  0.500000  0.375000      6.000000
  0.500000  0.500000  0.500000      1.000000
 
 Following cartesian coordinates:
            Coordinates               Weight
  0.000000  0.000000  0.000000      1.000000
  0.030443 -0.016578  0.000000      6.000000
  0.060886 -0.033157  0.000000      6.000000
  0.091329 -0.049735  0.000000      6.000000
  0.121772 -0.066314  0.000000      3.000000
  0.030443  0.018086  0.000000      6.000000
  0.060886  0.001508  0.000000     12.000000
  0.091329 -0.015071  0.000000     12.000000
  0.121772 -0.031649  0.000000     12.000000
 -0.091329  0.084400  0.000000     12.000000
 -0.060886  0.067821  0.000000     12.000000
 -0.030443  0.051243  0.000000      6.000000
  0.060886  0.036172  0.000000      6.000000
  0.091329  0.019593  0.000000     12.000000
  0.121772  0.003015  0.000000     12.000000
 -0.091329  0.119064  0.000000     12.000000
 -0.060886  0.102486  0.000000      6.000000
  0.091329  0.054258  0.000000      6.000000
  0.121772  0.037679  0.000000     12.000000
 -0.091329  0.153729  0.000000      6.000000
  0.121772  0.072344  0.000000      3.000000
  0.002538  0.001508  0.012168      2.000000
  0.032981 -0.015071  0.012168      6.000000
  0.063424 -0.031649  0.012168      6.000000
  0.093867 -0.048228  0.012168      6.000000
 -0.119235  0.067821  0.012168      6.000000
 -0.088792  0.051243  0.012168      6.000000
 -0.058349  0.034664  0.012168      6.000000
  0.032981  0.019593  0.012168      6.000000
  0.063424  0.003015  0.012168     12.000000
  0.093867 -0.013563  0.012168     12.000000
 -0.119235  0.102486  0.012168     12.000000
 -0.088792  0.085907  0.012168     12.000000
 -0.058349  0.069329  0.012168     12.000000
  0.063424  0.037679  0.012168      6.000000
  0.093867  0.021101  0.012168     12.000000
 -0.119235  0.137150  0.012168     12.000000
 -0.088792  0.120572  0.012168     12.000000
 -0.058349  0.103993  0.012168     12.000000
  0.093867  0.055765  0.012168      6.000000
 -0.119235  0.171815  0.012168     12.000000
 -0.088792  0.155236  0.012168     12.000000
 -0.058349  0.138658  0.012168      6.000000
 -0.119235 -0.070836  0.012168      6.000000
 -0.088792 -0.087415  0.012168     12.000000
 -0.088792 -0.052750  0.012168      6.000000
  0.005075  0.003015  0.024336      2.000000
  0.035518 -0.013563  0.024336      6.000000
  0.065961 -0.030142  0.024336      6.000000
 -0.147140  0.085907  0.024336      6.000000
 -0.116697  0.069329  0.024336      6.000000
  0.035518  0.021101  0.024336      6.000000
  0.065961  0.004523  0.024336     12.000000
 -0.147140  0.120572  0.024336     12.000000
 -0.116697  0.103993  0.024336     12.000000
  0.065961  0.039187  0.024336      6.000000
 -0.147140  0.155236  0.024336     12.000000
 -0.116697  0.138658  0.024336      6.000000
 -0.147140 -0.087415  0.024336      6.000000
  0.007613  0.004523  0.036504      2.000000
  0.038056 -0.012056  0.036504      6.000000
 -0.175046  0.103993  0.036504      6.000000
  0.038056  0.022608  0.036504      6.000000
 -0.175046  0.138658  0.036504      6.000000
  0.010150  0.006030  0.048672      1.000000
 


--------------------------------------------------------------------------------------------------------




 Dimension of arrays:
   k-points           NKPTS =     65   k-points in BZ     NKDIM =     65   number of bands    NBANDS=     38
   number of dos      NEDOS =    301   number of ions     NIONS =      5
   non local maximal  LDIM  =      6   non local SUM 2l+1 LMDIM =     18
   total plane-waves  NPLWV = 157464
   max r-space proj   IRMAX =  12909   max aug-charges    IRDMAX=  45945
   dimension x,y,z NGX =    54 NGY =   54 NGZ =   54
   dimension x,y,z NGXF=   108 NGYF=  108 NGZF=  108
   support grid    NGXF=   108 NGYF=  108 NGZF=  108
   ions per type =               2   3
 NGX,Y,Z   is equivalent  to a cutoff of   8.74,  8.74,  8.74 a.u.
 NGXF,Y,Z  is equivalent  to a cutoff of  17.48, 17.48, 17.48 a.u.


 I would recommend the setting:
   dimension x,y,z NGX =    53 NGY =   53 NGZ =   53
 SYSTEM =  Fully inherited from the final state of 
 POSCAR =  i2a=[Bi,Se] ; Bi2Se3.su.if.static.100   

 Startparameter for this run:
   NWRITE =      2    write-flag & timer
   PREC   = normal    normal or accurate (medium, high low for compatibility)
   ISTART =      0    job   : 0-new  1-cont  2-samecut
   ICHARG =      2    charge: 1-file 2-atom 10-const
   ISPIN  =      1    spin polarized calculation?
   LNONCOLLINEAR =      F non collinear calculations
   LSORBIT =      F    spin-orbit coupling
   INIWAV =      1    electr: 0-lowe 1-rand  2-diag
   LASPH  =      F    aspherical Exc in radial PAW
   METAGGA=      F    non-selfconsistent MetaGGA calc.

 Electronic Relaxation 1
   ENCUT  =  441.0 eV  32.41 Ry    5.69 a.u.  17.59 17.59 17.59*2*pi/ulx,y,z
   ENINI  =  441.0     initial cutoff
   ENAUG  =  776.2 eV  augmentation charge cutoff
   NELM   =     50;   NELMIN=  4; NELMDL= -5     # of ELM steps 
   EDIFF  = 0.6E-05   stopping-criterion for ELM
   LREAL  =      T    real-space projection
   NLSPLINE    = F    spline interpolate recip. space projectors
   LCOMPAT=      F    compatible to vasp.4.4
   GGA_COMPAT  = T    GGA compatible to vasp.4.4-vasp.4.6
   LMAXPAW     = -100 max onsite density
   LMAXMIX     =    2 max onsite mixed and CHGCAR
   VOSKOWN=      0    Vosko Wilk Nusair interpolation
   ROPT   =   -0.00050  -0.00050
 Ionic relaxation
   EDIFFG = 0.0E+00   stopping-criterion for IOM
   NSW    =      0    number of steps for IOM
   NBLOCK =      1;   KBLOCK =      1    inner block; outer block 
   IBRION =     -1    ionic relax: 0-MD 1-quasi-New 2-CG
   NFREE  =      0    steps in history (QN), initial steepest desc. (CG)
   ISIF   =      2    stress and relaxation
   IWAVPR =     10    prediction:  0-non 1-charg 2-wave 3-comb
   ISYM   =      2    0-nonsym 1-usesym 2-fastsym
   LCORR  =      T    Harris-Foulkes like correction to forces

   POTIM  = 0.5000    time-step for ionic-motion
   TEIN   =    0.0    initial temperature
   TEBEG  =    0.0;   TEEND  =   0.0 temperature during run
   SMASS  =  -3.00    Nose mass-parameter (am)
   estimated Nose-frequenzy (Omega)   =  0.10E-29 period in steps =****** mass=  -0.241E-26a.u.
   SCALEE = 1.0000    scale energy and forces
   NPACO  =    256;   APACO  = 16.0  distance and # of slots for P.C.
   PSTRESS=    0.0 pullay stress

  Mass of Ions in am
   POMASS = 208.98 78.96
  Ionic Valenz
   ZVAL   =  21.00  6.00
  Atomic Wigner-Seitz radii
   RWIGS  =  -1.00 -1.00
  virtual crystal weights 
   VCA    =   1.00  1.00
   NELECT =      60.0000    total number of electrons
   NUPDOWN=      -1.0000    fix difference up-down

 DOS related values:
   EMIN   =  10.00;   EMAX   =-10.00  energy-range for DOS
   EFERMI =   0.00
   ISMEAR =     2;   SIGMA  =   0.20  broadening in eV -4-tet -1-fermi 0-gaus

 Electronic relaxation 2 (details)
   IALGO  =     38    algorithm
   LDIAG  =      T    sub-space diagonalisation (order eigenvalues)
   LSUBROT=      F    optimize rotation matrix (better conditioning)
   TURBO    =      0    0=normal 1=particle mesh
   IRESTART =      0    0=no restart 2=restart with 2 vectors
   NREBOOT  =      0    no. of reboots
   NMIN     =      0    reboot dimension
   EREF     =   0.00    reference energy to select bands
   IMIX   =      4    mixing-type and parameters
     AMIX     =   0.40;   BMIX     =  1.00
     AMIX_MAG =   1.60;   BMIX_MAG =  1.00
     AMIN     =   0.10
     WC   =   100.;   INIMIX=   1;  MIXPRE=   1;  MAXMIX=  40

 Intra band minimization:
   WEIMIN = 0.0000     energy-eigenvalue tresh-hold
   EBREAK =  0.00E+00  absolut break condition
   DEPER  =   0.30     relativ break condition  

   TIME   =   0.40     timestep for ELM

  volume/ion in A,a.u.               =      30.42       205.29
  Fermi-wavevector in a.u.,A,eV,Ry     =   1.200637  2.268875 19.613196  1.441529
  Thomas-Fermi vector in A             =   2.336468
 
 Write flags
   LWAVE  =      T    write WAVECAR
   LCHARG =      T    write CHGCAR
   LVTOT  =      F    write LOCPOT, total local potential
   LVHAR  =      F    write LOCPOT, Hartree potential only
   LELF   =      F    write electronic localiz. function (ELF)
   LORBIT =      0    0 simple, 1 ext, 2 COOP (PROOUT)


 Dipole corrections
   LMONO  =      F    monopole corrections only (constant potential shift)
   LDIPOL =      F    correct potential (dipole corrections)
   IDIPOL =      0    1-x, 2-y, 3-z, 4-all directions 
   EPSILON=  1.0000000 bulk dielectric constant

 Exchange correlation treatment:
   GGA     =    --    GGA type
   LEXCH   =     8    internal setting for exchange type
   VOSKOWN=      0    Vosko Wilk Nusair interpolation
   LHFCALC =     F    Hartree Fock is set to
   LHFONE  =     F    Hartree Fock one center treatment
   AEXX    =    0.0000 exact exchange contribution

 Linear response parameters
   LEPSILON=     F    determine dielectric tensor
   LRPA    =     F    only Hartree local field effects (RPA)
   LNABLA  =     F    use nabla operator in PAW spheres
   LVEL    =     F    velocity operator in full k-point grid
   LINTERFAST=   F  fast interpolation
   KINTER  =     0    interpolate to denser k-point grid
   CSHIFT  =0.1000    complex shift for real part using Kramers Kronig
   OMEGAMAX=  -1.0    maximum frequency
   DEG_THRESHOLD= 0.2000000E-02 threshold for treating states as degnerate
   RTIME   =    0.100 relaxation time in fs

 Orbital magnetization related:
   ORBITALMAG=     F  switch on orbital magnetization
   LCHIMAG   =     F  perturbation theory with respect to B field
   DQ        =  0.001000  dq finite difference perturbation B field



--------------------------------------------------------------------------------------------------------


 Static calculation
 charge density and potential will be updated during run
 non-spin polarized calculation
 Variant of blocked Davidson
 Davidson routine will perform the subspace rotation
 perform sub-space diagonalisation
    after iterative eigenvector-optimisation
 modified Broyden-mixing scheme, WC =      100.0
 initial mixing is a Kerker type mixing with AMIX =  0.4000 and BMIX =      1.0000
 Hartree-type preconditioning will be used
 using additional bands            8
 real space projection scheme for non local part
 use partial core corrections
 calculate Harris-corrections to forces 
   (improved forces if not selfconsistent)
 use gradient corrections 
 use of overlap-Matrix (Vanderbilt PP)
 Methfessel and Paxton  Order N= 2 SIGMA  =   0.20


--------------------------------------------------------------------------------------------------------


  energy-cutoff  :      441.00
  volume of cell :      152.10
      direct lattice vectors                 reciprocal lattice vectors
     4.106034000  0.000000000  9.416603000     0.243544014 -0.132627638  0.000000000
     1.963734000  3.606003000  9.416603000     0.000000000  0.277315354  0.000000000
     0.000000000  0.000000000 10.272873000    -0.223244003 -0.132627629  0.097343752

  length of vectors
    10.272873370 10.272873061 10.272873000     0.277315302  0.277315354  0.277315306


 
 k-points in units of 2pi/SCALE and weight: Automatic Mesh                          
   0.00000000  0.00000000  0.00000000       0.002
   0.03044300 -0.01657845  0.00000000       0.012
   0.06088600 -0.03315691  0.00000000       0.012
   0.09132901 -0.04973536  0.00000000       0.012
   0.12177201 -0.06631382  0.00000000       0.006
   0.03044300  0.01808596  0.00000000       0.012
   0.06088600  0.00150751  0.00000000       0.023
   0.09132901 -0.01507094  0.00000000       0.023
   0.12177201 -0.03164940  0.00000000       0.023
  -0.09132901  0.08439978  0.00000000       0.023
  -0.06088600  0.06782133  0.00000000       0.023
  -0.03044300  0.05124287  0.00000000       0.012
   0.06088600  0.03617193  0.00000000       0.012
   0.09132901  0.01959347  0.00000000       0.023
   0.12177201  0.00301502  0.00000000       0.023
  -0.09132901  0.11906420  0.00000000       0.023
  -0.06088600  0.10248575  0.00000000       0.012
   0.09132901  0.05425789  0.00000000       0.012
   0.12177201  0.03767944  0.00000000       0.023
  -0.09132901  0.15372862  0.00000000       0.012
   0.12177201  0.07234386  0.00000000       0.006
   0.00253750  0.00150751  0.01216797       0.004
   0.03298050 -0.01507094  0.01216797       0.012
   0.06342350 -0.03164940  0.01216797       0.012
   0.09386651 -0.04822785  0.01216797       0.012
  -0.11923451  0.06782133  0.01216797       0.012
  -0.08879150  0.05124288  0.01216797       0.012
  -0.05834850  0.03466442  0.01216797       0.012
   0.03298050  0.01959348  0.01216797       0.012
   0.06342350  0.00301502  0.01216797       0.023
   0.09386651 -0.01356343  0.01216797       0.023
  -0.11923451  0.10248575  0.01216797       0.023
  -0.08879150  0.08590729  0.01216797       0.023
  -0.05834850  0.06932884  0.01216797       0.023
   0.06342350  0.03767944  0.01216797       0.012
   0.09386651  0.02110099  0.01216797       0.023
  -0.11923451  0.13715017  0.01216797       0.023
  -0.08879150  0.12057171  0.01216797       0.023
  -0.05834850  0.10399326  0.01216797       0.023
   0.09386651  0.05576540  0.01216797       0.012
  -0.11923451  0.17181459  0.01216797       0.023
  -0.08879150  0.15523613  0.01216797       0.023
  -0.05834850  0.13865768  0.01216797       0.012
  -0.11923451 -0.07083635  0.01216797       0.012
  -0.08879150 -0.08741480  0.01216797       0.023
  -0.08879150 -0.05275038  0.01216797       0.012
   0.00507500  0.00301502  0.02433594       0.004
   0.03551800 -0.01356343  0.02433594       0.012
   0.06596101 -0.03014189  0.02433594       0.012
  -0.14714001  0.08590730  0.02433594       0.012
  -0.11669700  0.06932884  0.02433594       0.012
   0.03551800  0.02110099  0.02433594       0.012
   0.06596101  0.00452253  0.02433594       0.023
  -0.14714001  0.12057171  0.02433594       0.023
  -0.11669700  0.10399326  0.02433594       0.023
   0.06596101  0.03918695  0.02433594       0.012
  -0.14714001  0.15523613  0.02433594       0.023
  -0.11669700  0.13865768  0.02433594       0.012
  -0.14714001 -0.08741480  0.02433594       0.012
   0.00761250  0.00452253  0.03650391       0.004
   0.03805551 -0.01205592  0.03650391       0.012
  -0.17504551  0.10399326  0.03650391       0.012
   0.03805551  0.02260850  0.03650391       0.012
  -0.17504551  0.13865768  0.03650391       0.012
   0.01015001  0.00603004  0.04867188       0.002
 
 k-points in reciprocal lattice and weights: Automatic Mesh                          
   0.00000000  0.00000000  0.00000000       0.002
   0.12500000 -0.00000000  0.00000000       0.012
   0.25000000 -0.00000000  0.00000000       0.012
   0.37500000  0.00000000  0.00000000       0.012
   0.50000000 -0.00000000  0.00000000       0.006
   0.12500000  0.12500000  0.00000000       0.012
   0.25000000  0.12500000  0.00000000       0.023
   0.37500000  0.12500000  0.00000000       0.023
   0.50000000  0.12500000  0.00000000       0.023
  -0.37500000  0.12500000  0.00000000       0.023
  -0.25000000  0.12500000  0.00000000       0.023
  -0.12500000  0.12500000  0.00000000       0.012
   0.25000000  0.25000000  0.00000000       0.012
   0.37500000  0.25000000  0.00000000       0.023
   0.50000000  0.25000000  0.00000000       0.023
  -0.37500000  0.25000000  0.00000000       0.023
  -0.25000000  0.25000000  0.00000000       0.012
   0.37500000  0.37500000  0.00000000       0.012
   0.50000000  0.37500000  0.00000000       0.023
  -0.37500000  0.37500000  0.00000000       0.012
   0.50000000  0.50000000  0.00000000       0.006
   0.12500000  0.12500000  0.12500000       0.004
   0.25000000  0.12500000  0.12500000       0.012
   0.37500000  0.12500000  0.12500000       0.012
   0.50000000  0.12500000  0.12500000       0.012
  -0.37500000  0.12500000  0.12500000       0.012
  -0.25000000  0.12500000  0.12500000       0.012
  -0.12500000  0.12500000  0.12500000       0.012
   0.25000000  0.25000000  0.12500000       0.012
   0.37500000  0.25000000  0.12500000       0.023
   0.50000000  0.25000000  0.12500000       0.023
  -0.37500000  0.25000000  0.12500000       0.023
  -0.25000000  0.25000000  0.12500000       0.023
  -0.12500000  0.25000000  0.12500000       0.023
   0.37500000  0.37500000  0.12500000       0.012
   0.50000000  0.37500000  0.12500000       0.023
  -0.37500000  0.37500000  0.12500000       0.023
  -0.25000000  0.37500000  0.12500000       0.023
  -0.12500000  0.37500000  0.12500000       0.023
   0.50000000  0.50000000  0.12500000       0.012
  -0.37500000  0.50000000  0.12500000       0.023
  -0.25000000  0.50000000  0.12500000       0.023
  -0.12500000  0.50000000  0.12500000       0.012
  -0.37500000 -0.37500000  0.12500000       0.012
  -0.25000000 -0.37500000  0.12500000       0.023
  -0.25000000 -0.25000000  0.12500000       0.012
   0.25000000  0.25000000  0.25000000       0.004
   0.37500000  0.25000000  0.25000000       0.012
   0.50000000  0.25000000  0.25000000       0.012
  -0.37500000  0.25000000  0.25000000       0.012
  -0.25000000  0.25000000  0.25000000       0.012
   0.37500000  0.37500000  0.25000000       0.012
   0.50000000  0.37500000  0.25000000       0.023
  -0.37500000  0.37500000  0.25000000       0.023
  -0.25000000  0.37500000  0.25000000       0.023
   0.50000000  0.50000000  0.25000000       0.012
  -0.37500000  0.50000000  0.25000000       0.023
  -0.25000000  0.50000000  0.25000000       0.012
  -0.37500000 -0.37500000  0.25000000       0.012
   0.37500000  0.37500000  0.37500000       0.004
   0.50000000  0.37500000  0.37500000       0.012
  -0.37500000  0.37500000  0.37500000       0.012
   0.50000000  0.50000000  0.37500000       0.012
  -0.37500000  0.50000000  0.37500000       0.012
   0.50000000  0.50000000  0.50000000       0.002
 
 position of ions in fractional coordinates (direct lattice) 
   0.39843500  0.39843500  0.39843500
   0.60156500  0.60156500  0.60156500
   0.00000000  0.00000000  0.00000000
   0.21571500  0.21571500  0.21571500
   0.78428500  0.78428500  0.78428500
 
 position of ions in cartesian coordinates  (Angst):
   2.41840801  1.43675781 11.59688059
   3.65135999  2.16924519 17.50919841
   0.00000000  0.00000000  0.00000000
   1.30934000  0.77786894  6.27861783
   4.76042800  2.82813406 22.82746117
 


--------------------------------------------------------------------------------------------------------


 k-point  1 :   0.0000 0.0000 0.0000  plane waves:    3173
 k-point  2 :   0.1250-0.0000 0.0000  plane waves:    3201
 k-point  3 :   0.2500-0.0000 0.0000  plane waves:    3193
 k-point  4 :   0.3750 0.0000 0.0000  plane waves:    3207
 k-point  5 :   0.5000-0.0000 0.0000  plane waves:    3222
 k-point  6 :   0.1250 0.1250 0.0000  plane waves:    3192
 k-point  7 :   0.2500 0.1250 0.0000  plane waves:    3202
 k-point  8 :   0.3750 0.1250 0.0000  plane waves:    3188
 k-point  9 :   0.5000 0.1250 0.0000  plane waves:    3212
 k-point 10 :  -0.3750 0.1250 0.0000  plane waves:    3208
 k-point 11 :  -0.2500 0.1250 0.0000  plane waves:    3188
 k-point 12 :  -0.1250 0.1250 0.0000  plane waves:    3197
 k-point 13 :   0.2500 0.2500 0.0000  plane waves:    3192
 k-point 14 :   0.3750 0.2500 0.0000  plane waves:    3192
 k-point 15 :   0.5000 0.2500 0.0000  plane waves:    3197
 k-point 16 :  -0.3750 0.2500 0.0000  plane waves:    3214
 k-point 17 :  -0.2500 0.2500 0.0000  plane waves:    3197
 k-point 18 :   0.3750 0.3750 0.0000  plane waves:    3193
 k-point 19 :   0.5000 0.3750 0.0000  plane waves:    3195
 k-point 20 :  -0.3750 0.3750 0.0000  plane waves:    3215
 k-point 21 :   0.5000 0.5000 0.0000  plane waves:    3190
 k-point 22 :   0.1250 0.1250 0.1250  plane waves:    3190
 k-point 23 :   0.2500 0.1250 0.1250  plane waves:    3198
 k-point 24 :   0.3750 0.1250 0.1250  plane waves:    3190
 k-point 25 :   0.5000 0.1250 0.1250  plane waves:    3202
 k-point 26 :  -0.3750 0.1250 0.1250  plane waves:    3211
 k-point 27 :  -0.2500 0.1250 0.1250  plane waves:    3209
 k-point 28 :  -0.1250 0.1250 0.1250  plane waves:    3198
 k-point 29 :   0.2500 0.2500 0.1250  plane waves:    3188
 k-point 30 :   0.3750 0.2500 0.1250  plane waves:    3192
 k-point 31 :   0.5000 0.2500 0.1250  plane waves:    3189
 k-point 32 :  -0.3750 0.2500 0.1250  plane waves:    3202
 k-point 33 :  -0.2500 0.2500 0.1250  plane waves:    3202
 k-point 34 :  -0.1250 0.2500 0.1250  plane waves:    3181
 k-point 35 :   0.3750 0.3750 0.1250  plane waves:    3198
 k-point 36 :   0.5000 0.3750 0.1250  plane waves:    3189
 k-point 37 :  -0.3750 0.3750 0.1250  plane waves:    3196
 k-point 38 :  -0.2500 0.3750 0.1250  plane waves:    3217
 k-point 39 :  -0.1250 0.3750 0.1250  plane waves:    3207
 k-point 40 :   0.5000 0.5000 0.1250  plane waves:    3202
 k-point 41 :  -0.3750 0.5000 0.1250  plane waves:    3199
 k-point 42 :  -0.2500 0.5000 0.1250  plane waves:    3213
 k-point 43 :  -0.1250 0.5000 0.1250  plane waves:    3210
 k-point 44 :  -0.3750-0.3750 0.1250  plane waves:    3193
 k-point 45 :  -0.2500-0.3750 0.1250  plane waves:    3202
 k-point 46 :  -0.2500-0.2500 0.1250  plane waves:    3204
 k-point 47 :   0.2500 0.2500 0.2500  plane waves:    3190
 k-point 48 :   0.3750 0.2500 0.2500  plane waves:    3206
 k-point 49 :   0.5000 0.2500 0.2500  plane waves:    3200
 k-point 50 :  -0.3750 0.2500 0.2500  plane waves:    3211
 k-point 51 :  -0.2500 0.2500 0.2500  plane waves:    3208
 k-point 52 :   0.3750 0.3750 0.2500  plane waves:    3196
 k-point 53 :   0.5000 0.3750 0.2500  plane waves:    3196
 k-point 54 :  -0.3750 0.3750 0.2500  plane waves:    3180
 k-point 55 :  -0.2500 0.3750 0.2500  plane waves:    3209
 k-point 56 :   0.5000 0.5000 0.2500  plane waves:    3184
 k-point 57 :  -0.3750 0.5000 0.2500  plane waves:    3199
 k-point 58 :  -0.2500 0.5000 0.2500  plane waves:    3188
 k-point 59 :  -0.3750-0.3750 0.2500  plane waves:    3201
 k-point 60 :   0.3750 0.3750 0.3750  plane waves:    3178
 k-point 61 :   0.5000 0.3750 0.3750  plane waves:    3198
 k-point 62 :  -0.3750 0.3750 0.3750  plane waves:    3184
 k-point 63 :   0.5000 0.5000 0.3750  plane waves:    3192
 k-point 64 :  -0.3750 0.5000 0.3750  plane waves:    3188
 k-point 65 :   0.5000 0.5000 0.5000  plane waves:    3202

 maximum and minimum number of plane-waves per node :       217      188

 maximum number of plane-waves:      3222
 maximum index in each direction: 
   IXMAX=   17   IYMAX=   17   IZMAX=   17
   IXMIN=  -18   IYMIN=  -18   IZMIN=  -18

 WARNING: aliasing errors must be expected set NGX to  72 to avoid them
 WARNING: aliasing errors must be expected set NGY to  72 to avoid them
 WARNING: aliasing errors must be expected set NGZ to  72 to avoid them
 aliasing errors are usually negligible using standard VASP settings
 and one can safely disregard these warnings

 real space projection operators:
  total allocation   :       6164.82 KBytes
  max/ min on nodes  :        442.13        348.92


 parallel 3D FFT for wavefunctions:
    minimum data exchange during FFTs selected (reduces bandwidth)
 parallel 3D FFT for charge:
    minimum data exchange during FFTs selected (reduces bandwidth)


 total amount of memory used by VASP on root node    48516. kBytes
========================================================================

   base      :      30000. kBytes
   nonlr-proj:       1631. kBytes
   fftplans  :       3114. kBytes
   grid      :       5102. kBytes
   one-center:         15. kBytes
   wavefun   :       8654. kBytes
 
     INWAV:  cpu time    0.0000: real time    0.0001
 Broyden mixing: mesh for mixing (old mesh)
   NGX = 35   NGY = 35   NGZ = 35
  (NGX  =108   NGY  =108   NGZ  =108)
  gives a total of  42875 points

 initial charge density was supplied:
 charge density of overlapping atoms calculated
 number of electron      60.0000000 magnetization 
 keeping initial charge density in first step


--------------------------------------------------------------------------------------------------------


 Maximum index for non-local projection operator          822
 Maximum index for augmentation-charges         2981 (set IRDMAX)


--------------------------------------------------------------------------------------------------------


 First call to EWALD:  gamma=   0.332
 Maximum number of real-space cells 4x 4x 4
 Maximum number of reciprocal cells 5x 5x 5

 FEWALD executed in parallel
    FEWALD:  cpu time    0.0020: real time    0.0021


----------------------------------------- Iteration    1(   1)  ---------------------------------------


    POTLOK:  cpu time    0.0548: real time    0.0548
    SETDIJ:  cpu time    0.0070: real time    0.0070
     EDDAV:  cpu time    6.9522: real time    6.9500
       DOS:  cpu time    0.0062: real time    0.0062
    --------------------------------------------
      LOOP:  cpu time    7.0224: real time    7.0736

 eigenvalue-minimisations  :  6348
 total energy-change (2. order) : 0.4765914E+03  (-0.3862110E+04)
 number of electron      60.0000000 magnetization 
 augmentation part       60.0000000 magnetization 

 Free energy of the ion-electron system (eV)
  ---------------------------------------------------
  alpha Z        PSCENC =       200.08717370
  Ewald energy   TEWEN  =     -5289.35365976
  -Hartree energ DENC   =     -3623.07671125
  -exchange      EXHF   =         0.00000000
  -V(xc)+E(xc)   XCENC  =       227.94653331
  PAW double counting   =      7404.97912102    -7555.84706289
  entropy T*S    EENTRO =         0.00362013
  eigenvalues    EBANDS =      -935.93525080
  atomic energy  EATOM  =     10047.78760332
  Solvation  Ediel_sol  =         0.00000000
  ---------------------------------------------------
  free energy    TOTEN  =       476.59136678 eV

  energy without entropy =      476.58774664  energy(sigma->0) =      476.59046174


--------------------------------------------------------------------------------------------------------




----------------------------------------- Iteration    1(   2)  ---------------------------------------


     EDDAV:  cpu time    6.8926: real time    6.8895
       DOS:  cpu time    0.0062: real time    0.0062
    --------------------------------------------
      LOOP:  cpu time    6.8993: real time    6.9717

 eigenvalue-minimisations  :  6334
 total energy-change (2. order) :-0.4674734E+03  (-0.4547625E+03)
 number of electron      60.0000000 magnetization 
 augmentation part       60.0000000 magnetization 

 Free energy of the ion-electron system (eV)
  ---------------------------------------------------
  alpha Z        PSCENC =       200.08717370
  Ewald energy   TEWEN  =     -5289.35365976
  -Hartree energ DENC   =     -3623.07671125
  -exchange      EXHF   =         0.00000000
  -V(xc)+E(xc)   XCENC  =       227.94653331
  PAW double counting   =      7404.97912102    -7555.84706289
  entropy T*S    EENTRO =         0.00033938
  eigenvalues    EBANDS =     -1403.40537683
  atomic energy  EATOM  =     10047.78760332
  Solvation  Ediel_sol  =         0.00000000
  ---------------------------------------------------
  free energy    TOTEN  =         9.11795999 eV

  energy without entropy =        9.11762061  energy(sigma->0) =        9.11787515


--------------------------------------------------------------------------------------------------------




----------------------------------------- Iteration    1(   3)  ---------------------------------------


     EDDAV:  cpu time    6.3339: real time    6.3309
       DOS:  cpu time    0.0061: real time    0.0061
    --------------------------------------------
      LOOP:  cpu time    6.3406: real time    6.4320

 eigenvalue-minimisations  :  5688
 total energy-change (2. order) :-0.2919741E+02  (-0.2868860E+02)
 number of electron      60.0000000 magnetization 
 augmentation part       60.0000000 magnetization 

 Free energy of the ion-electron system (eV)
  ---------------------------------------------------
  alpha Z        PSCENC =       200.08717370
  Ewald energy   TEWEN  =     -5289.35365976
  -Hartree energ DENC   =     -3623.07671125
  -exchange      EXHF   =         0.00000000
  -V(xc)+E(xc)   XCENC  =       227.94653331
  PAW double counting   =      7404.97912102    -7555.84706289
  entropy T*S    EENTRO =        -0.00015180
  eigenvalues    EBANDS =     -1432.60230045
  atomic energy  EATOM  =     10047.78760332
  Solvation  Ediel_sol  =         0.00000000
  ---------------------------------------------------
  free energy    TOTEN  =       -20.07945481 eV

  energy without entropy =      -20.07930301  energy(sigma->0) =      -20.07941686


--------------------------------------------------------------------------------------------------------




----------------------------------------- Iteration    1(   4)  ---------------------------------------


     EDDAV:  cpu time    7.0285: real time    7.0257
       DOS:  cpu time    0.0062: real time    0.0062
    --------------------------------------------
      LOOP:  cpu time    7.0357: real time    7.1628

 eigenvalue-minimisations  :  6488
 total energy-change (2. order) :-0.9082787E+00  (-0.9076224E+00)
 number of electron      60.0000000 magnetization 
 augmentation part       60.0000000 magnetization 

 Free energy of the ion-electron system (eV)
  ---------------------------------------------------
  alpha Z        PSCENC =       200.08717370
  Ewald energy   TEWEN  =     -5289.35365976
  -Hartree energ DENC   =     -3623.07671125
  -exchange      EXHF   =         0.00000000
  -V(xc)+E(xc)   XCENC  =       227.94653331
  PAW double counting   =      7404.97912102    -7555.84706289
  entropy T*S    EENTRO =        -0.00024378
  eigenvalues    EBANDS =     -1433.51048721
  atomic energy  EATOM  =     10047.78760332
  Solvation  Ediel_sol  =         0.00000000
  ---------------------------------------------------
  free energy    TOTEN  =       -20.98773355 eV

  energy without entropy =      -20.98748977  energy(sigma->0) =      -20.98767260


--------------------------------------------------------------------------------------------------------




----------------------------------------- Iteration    1(   5)  ---------------------------------------


     EDDAV:  cpu time    7.8383: real time    7.8344
       DOS:  cpu time    0.0063: real time    0.0063
    CHARGE:  cpu time    0.5277: real time    0.5275
    MIXING:  cpu time    0.0020: real time    0.0021
    --------------------------------------------
      LOOP:  cpu time    8.3749: real time    8.4695

 eigenvalue-minimisations  :  7426
 total energy-change (2. order) :-0.6215093E-01  (-0.6214737E-01)
 number of electron      59.9999965 magnetization 
 augmentation part       11.7717556 magnetization 

 Broyden mixing:
  rms(total) = 0.10959E+01    rms(broyden)= 0.10959E+01
  rms(prec ) = 0.12377E+01
  weight for this iteration     100.00

 Free energy of the ion-electron system (eV)
  ---------------------------------------------------
  alpha Z        PSCENC =       200.08717370
  Ewald energy   TEWEN  =     -5289.35365976
  -Hartree energ DENC   =     -3623.07671125
  -exchange      EXHF   =         0.00000000
  -V(xc)+E(xc)   XCENC  =       227.94653331
  PAW double counting   =      7404.97912102    -7555.84706289
  entropy T*S    EENTRO =        -0.00026866
  eigenvalues    EBANDS =     -1433.57261326
  atomic energy  EATOM  =     10047.78760332
  Solvation  Ediel_sol  =         0.00000000
  ---------------------------------------------------
  free energy    TOTEN  =       -21.04988448 eV

  energy without entropy =      -21.04961581  energy(sigma->0) =      -21.04981731


--------------------------------------------------------------------------------------------------------




----------------------------------------- Iteration    1(   6)  ---------------------------------------


    POTLOK:  cpu time    0.0527: real time    0.0527
    SETDIJ:  cpu time    0.0053: real time    0.0053
     EDDAV:  cpu time    6.0407: real time    6.0379
       DOS:  cpu time    0.0063: real time    0.0063
    CHARGE:  cpu time    0.5095: real time    0.5091
    MIXING:  cpu time    0.0019: real time    0.0019
    --------------------------------------------
      LOOP:  cpu time    6.6170: real time    6.7083

 eigenvalue-minimisations  :  5330
 total energy-change (2. order) : 0.9080878E+00  (-0.2293230E+00)
 number of electron      59.9999965 magnetization 
 augmentation part       11.9319327 magnetization 

 Broyden mixing:
  rms(total) = 0.76938E+00    rms(broyden)= 0.76938E+00
  rms(prec ) = 0.78311E+00
  weight for this iteration     100.00

 eigenvalues of (default mixing * dielectric matrix)
  average eigenvalue GAMMA=   2.4324
  2.4324

 Free energy of the ion-electron system (eV)
  ---------------------------------------------------
  alpha Z        PSCENC =       200.08717370
  Ewald energy   TEWEN  =     -5289.35365976
  -Hartree energ DENC   =     -3599.05812841
  -exchange      EXHF   =         0.00000000
  -V(xc)+E(xc)   XCENC  =       228.06446663
  PAW double counting   =      7320.82000323    -7470.30368152
  entropy T*S    EENTRO =        -0.00005304
  eigenvalues    EBANDS =     -1458.18552083
  atomic energy  EATOM  =     10047.78760332
  Solvation  Ediel_sol  =         0.00000000
  ---------------------------------------------------
  free energy    TOTEN  =       -20.14179668 eV

  energy without entropy =      -20.14174364  energy(sigma->0) =      -20.14178342


--------------------------------------------------------------------------------------------------------




----------------------------------------- Iteration    1(   7)  ---------------------------------------


    POTLOK:  cpu time    0.0519: real time    0.0523
    SETDIJ:  cpu time    0.0053: real time    0.0052
     EDDAV:  cpu time    6.0299: real time    6.0267
       DOS:  cpu time    0.0064: real time    0.0064
    CHARGE:  cpu time    0.5106: real time    0.5105
    MIXING:  cpu time    0.0018: real time    0.0018
    --------------------------------------------
      LOOP:  cpu time    6.6070: real time    6.6905

 eigenvalue-minimisations  :  5324
 total energy-change (2. order) :-0.6635863E-02  (-0.3747879E-01)
 number of electron      59.9999965 magnetization 
 augmentation part       11.9451857 magnetization 

 Broyden mixing:
  rms(total) = 0.34013E+00    rms(broyden)= 0.34013E+00
  rms(prec ) = 0.34500E+00
  weight for this iteration     100.00

 eigenvalues of (default mixing * dielectric matrix)
  average eigenvalue GAMMA=   1.8240
  1.0753  2.5726

 Free energy of the ion-electron system (eV)
  ---------------------------------------------------
  alpha Z        PSCENC =       200.08717370
  Ewald energy   TEWEN  =     -5289.35365976
  -Hartree energ DENC   =     -3596.89458175
  -exchange      EXHF   =         0.00000000
  -V(xc)+E(xc)   XCENC  =       228.20847947
  PAW double counting   =      7344.37574386    -7494.94453795
  entropy T*S    EENTRO =        -0.00043592
  eigenvalues    EBANDS =     -1459.41421750
  atomic energy  EATOM  =     10047.78760332
  Solvation  Ediel_sol  =         0.00000000
  ---------------------------------------------------
  free energy    TOTEN  =       -20.14843254 eV

  energy without entropy =      -20.14799662  energy(sigma->0) =      -20.14832356


--------------------------------------------------------------------------------------------------------




----------------------------------------- Iteration    1(   8)  ---------------------------------------


    POTLOK:  cpu time    0.0521: real time    0.0521
    SETDIJ:  cpu time    0.0053: real time    0.0052
     EDDAV:  cpu time    6.1297: real time    6.1268
       DOS:  cpu time    0.0063: real time    0.0063
    CHARGE:  cpu time    0.5106: real time    0.5102
    MIXING:  cpu time    0.0021: real time    0.0021
    --------------------------------------------
      LOOP:  cpu time    6.7067: real time    6.7883

 eigenvalue-minimisations  :  5420
 total energy-change (2. order) :-0.6651826E-02  (-0.6122528E-02)
 number of electron      59.9999965 magnetization 
 augmentation part       11.9362142 magnetization 

 Broyden mixing:
  rms(total) = 0.22736E-01    rms(broyden)= 0.22736E-01
  rms(prec ) = 0.32096E-01
  weight for this iteration     100.00

 eigenvalues of (default mixing * dielectric matrix)
  average eigenvalue GAMMA=   1.5580
  2.4686  0.9593  1.2460

 Free energy of the ion-electron system (eV)
  ---------------------------------------------------
  alpha Z        PSCENC =       200.08717370
  Ewald energy   TEWEN  =     -5289.35365976
  -Hartree energ DENC   =     -3596.53374112
  -exchange      EXHF   =         0.00000000
  -V(xc)+E(xc)   XCENC  =       228.33696872
  PAW double counting   =      7373.18048282    -7524.85057839
  entropy T*S    EENTRO =        -0.00032614
  eigenvalues    EBANDS =     -1458.80900752
  atomic energy  EATOM  =     10047.78760332
  Solvation  Ediel_sol  =         0.00000000
  ---------------------------------------------------
  free energy    TOTEN  =       -20.15508437 eV

  energy without entropy =      -20.15475823  energy(sigma->0) =      -20.15500283


--------------------------------------------------------------------------------------------------------




----------------------------------------- Iteration    1(   9)  ---------------------------------------


    POTLOK:  cpu time    0.0527: real time    0.0527
    SETDIJ:  cpu time    0.0053: real time    0.0053
     EDDAV:  cpu time    7.4010: real time    7.3974
       DOS:  cpu time    0.0064: real time    0.0064
    CHARGE:  cpu time    0.5087: real time    0.5083
    MIXING:  cpu time    0.0021: real time    0.0021
    --------------------------------------------
      LOOP:  cpu time    7.9770: real time    8.0611

 eigenvalue-minimisations  :  6896
 total energy-change (2. order) : 0.9697824E-03  (-0.5948146E-03)
 number of electron      59.9999965 magnetization 
 augmentation part       11.9268817 magnetization 

 Broyden mixing:
  rms(total) = 0.96417E-02    rms(broyden)= 0.96416E-02
  rms(prec ) = 0.12252E-01
  weight for this iteration     100.00

 eigenvalues of (default mixing * dielectric matrix)
  average eigenvalue GAMMA=   1.5274
  2.5479  1.0115  1.1366  1.4134

 Free energy of the ion-electron system (eV)
  ---------------------------------------------------
  alpha Z        PSCENC =       200.08717370
  Ewald energy   TEWEN  =     -5289.35365976
  -Hartree energ DENC   =     -3596.65321373
  -exchange      EXHF   =         0.00000000
  -V(xc)+E(xc)   XCENC  =       228.33225194
  PAW double counting   =      7377.46090130    -7529.15405833
  entropy T*S    EENTRO =        -0.00025281
  eigenvalues    EBANDS =     -1458.66086022
  atomic energy  EATOM  =     10047.78760332
  Solvation  Ediel_sol  =         0.00000000
  ---------------------------------------------------
  free energy    TOTEN  =       -20.15411458 eV

  energy without entropy =      -20.15386178  energy(sigma->0) =      -20.15405138


--------------------------------------------------------------------------------------------------------




----------------------------------------- Iteration    1(  10)  ---------------------------------------


    POTLOK:  cpu time    0.0523: real time    0.0525
    SETDIJ:  cpu time    0.0053: real time    0.0053
     EDDAV:  cpu time    6.1106: real time    6.1074
       DOS:  cpu time    0.0063: real time    0.0063
    CHARGE:  cpu time    0.5089: real time    0.5087
    MIXING:  cpu time    0.0022: real time    0.0022
    --------------------------------------------
      LOOP:  cpu time    6.6861: real time    6.7657

 eigenvalue-minimisations  :  5408
 total energy-change (2. order) :-0.2720609E-03  (-0.1730918E-03)
 number of electron      59.9999965 magnetization 
 augmentation part       11.9248617 magnetization 

 Broyden mixing:
  rms(total) = 0.41147E-02    rms(broyden)= 0.41147E-02
  rms(prec ) = 0.54762E-02
  weight for this iteration     100.00

 eigenvalues of (default mixing * dielectric matrix)
  average eigenvalue GAMMA=   1.5666
  2.5606  2.0261  0.9785  0.9785  1.2896

 Free energy of the ion-electron system (eV)
  ---------------------------------------------------
  alpha Z        PSCENC =       200.08717370
  Ewald energy   TEWEN  =     -5289.35365976
  -Hartree energ DENC   =     -3596.67273717
  -exchange      EXHF   =         0.00000000
  -V(xc)+E(xc)   XCENC  =       228.34093827
  PAW double counting   =      7377.92561593    -7529.61152624
  entropy T*S    EENTRO =        -0.00027273
  eigenvalues    EBANDS =     -1458.65752197
  atomic energy  EATOM  =     10047.78760332
  Solvation  Ediel_sol  =         0.00000000
  ---------------------------------------------------
  free energy    TOTEN  =       -20.15438664 eV

  energy without entropy =      -20.15411391  energy(sigma->0) =      -20.15431846


--------------------------------------------------------------------------------------------------------




----------------------------------------- Iteration    1(  11)  ---------------------------------------


    POTLOK:  cpu time    0.0522: real time    0.0521
    SETDIJ:  cpu time    0.0053: real time    0.0053
     EDDAV:  cpu time    6.5985: real time    6.5952
       DOS:  cpu time    0.0063: real time    0.0063
    CHARGE:  cpu time    0.5103: real time    0.5100
    MIXING:  cpu time    0.0023: real time    0.0023
    --------------------------------------------
      LOOP:  cpu time    7.1754: real time    7.2499

 eigenvalue-minimisations  :  5964
 total energy-change (2. order) :-0.6083550E-04  (-0.2447307E-04)
 number of electron      59.9999965 magnetization 
 augmentation part       11.9251892 magnetization 

 Broyden mixing:
  rms(total) = 0.13269E-02    rms(broyden)= 0.13268E-02
  rms(prec ) = 0.17261E-02
  weight for this iteration     100.00

 eigenvalues of (default mixing * dielectric matrix)
  average eigenvalue GAMMA=   1.5776
  2.6955  2.3788  0.9668  0.9668  1.2288  1.2288

 Free energy of the ion-electron system (eV)
  ---------------------------------------------------
  alpha Z        PSCENC =       200.08717370
  Ewald energy   TEWEN  =     -5289.35365976
  -Hartree energ DENC   =     -3596.55210829
  -exchange      EXHF   =         0.00000000
  -V(xc)+E(xc)   XCENC  =       228.34494291
  PAW double counting   =      7377.31746532    -7528.96734716
  entropy T*S    EENTRO =        -0.00027408
  eigenvalues    EBANDS =     -1458.81824346
  atomic energy  EATOM  =     10047.78760332
  Solvation  Ediel_sol  =         0.00000000
  ---------------------------------------------------
  free energy    TOTEN  =       -20.15444748 eV

  energy without entropy =      -20.15417340  energy(sigma->0) =      -20.15437896


--------------------------------------------------------------------------------------------------------




----------------------------------------- Iteration    1(  12)  ---------------------------------------


    POTLOK:  cpu time    0.0517: real time    0.0522
    SETDIJ:  cpu time    0.0052: real time    0.0052
     EDDAV:  cpu time    7.4005: real time    7.3974
       DOS:  cpu time    0.0063: real time    0.0063
    CHARGE:  cpu time    0.5072: real time    0.5070
    MIXING:  cpu time    0.0024: real time    0.0024
    --------------------------------------------
      LOOP:  cpu time    7.9745: real time    8.0476

 eigenvalue-minimisations  :  6880
 total energy-change (2. order) :-0.1229992E-04  (-0.4276790E-05)
 number of electron      59.9999965 magnetization 
 augmentation part       11.9244464 magnetization 

 Broyden mixing:
  rms(total) = 0.55800E-03    rms(broyden)= 0.55798E-03
  rms(prec ) = 0.70637E-03
  weight for this iteration     100.00

 eigenvalues of (default mixing * dielectric matrix)
  average eigenvalue GAMMA=   1.6227
  2.8649  2.6325  1.6754  0.9919  0.9919  1.1012  1.1012

 Free energy of the ion-electron system (eV)
  ---------------------------------------------------
  alpha Z        PSCENC =       200.08717370
  Ewald energy   TEWEN  =     -5289.35365976
  -Hartree energ DENC   =     -3596.62818512
  -exchange      EXHF   =         0.00000000
  -V(xc)+E(xc)   XCENC  =       228.34746612
  PAW double counting   =      7377.70311399    -7529.35558702
  entropy T*S    EENTRO =        -0.00027084
  eigenvalues    EBANDS =     -1458.74211417
  atomic energy  EATOM  =     10047.78760332
  Solvation  Ediel_sol  =         0.00000000
  ---------------------------------------------------
  free energy    TOTEN  =       -20.15445978 eV

  energy without entropy =      -20.15418894  energy(sigma->0) =      -20.15439207


--------------------------------------------------------------------------------------------------------




----------------------------------------- Iteration    1(  13)  ---------------------------------------


    POTLOK:  cpu time    0.0517: real time    0.0521
    SETDIJ:  cpu time    0.0053: real time    0.0053
     EDDAV:  cpu time    6.4077: real time    6.4046
       DOS:  cpu time    0.0064: real time    0.0064
    --------------------------------------------
      LOOP:  cpu time    6.4722: real time    6.5599

 eigenvalue-minimisations  :  5734
 total energy-change (2. order) :-0.4112899E-06  (-0.4831922E-06)
 number of electron      59.9999965 magnetization 
 augmentation part       11.9244464 magnetization 

 Free energy of the ion-electron system (eV)
  ---------------------------------------------------
  alpha Z        PSCENC =       200.08717370
  Ewald energy   TEWEN  =     -5289.35365976
  -Hartree energ DENC   =     -3596.67126878
  -exchange      EXHF   =         0.00000000
  -V(xc)+E(xc)   XCENC  =       228.34884680
  PAW double counting   =      7377.64026052    -7529.29091498
  entropy T*S    EENTRO =        -0.00027041
  eigenvalues    EBANDS =     -1458.70223060
  atomic energy  EATOM  =     10047.78760332
  Solvation  Ediel_sol  =         0.00000000
  ---------------------------------------------------
  free energy    TOTEN  =       -20.15446019 eV

  energy without entropy =      -20.15418978  energy(sigma->0) =      -20.15439259


--------------------------------------------------------------------------------------------------------




 average (electrostatic) potential at core
  the test charge radii are     1.0856  1.0808
  (the norm of the test charge is              1.0000)
       1-128.8073       2-128.8073       3 -53.5764       4 -53.6808       5 -53.6808
 
 
 
 E-fermi :   4.2142     XC(G=0):  -9.2419     alpha+bet : -9.5617


 k-point     1 :       0.0000    0.0000    0.0000
  band No.  band energies     occupation 
      1     -87.3611      2.00000
      2     -87.3608      2.00000
      3     -87.3604      2.00000
      4     -87.3604      2.00000
      5     -87.3602      2.00000
      6     -87.3602      2.00000
      7     -18.6840      2.00000
      8     -18.6840      2.00000
      9     -18.6828      2.00000
     10     -18.6828      2.00000
     11     -18.6785      2.00000
     12     -18.6766      2.00000
     13     -18.6674      2.00000
     14     -18.6674      2.00000
     15     -18.6654      2.00000
     16     -18.6654      2.00000
     17      -9.6868      2.00000
     18      -9.0797      2.00000
     19      -8.1392      2.00000
     20      -5.1528      2.00000
     21      -4.3183      2.00000
     22       2.3591      2.00000
     23       2.4536      2.00000
     24       2.6319      2.00000
     25       2.6319      2.00000
     26       2.7461      2.00000
     27       2.7461      2.00000
     28       3.2606      2.00000
     29       3.2606      2.00000
     30       4.2018      1.13124
     31       4.6444      0.00904
     32       5.8756      0.00000
     33       5.8756      0.00000
     34       6.4778      0.00000
     35       7.0172      0.00000
     36       7.0172      0.00000
     37      10.3381      0.00000
     38      11.0980      0.00000

 k-point     2 :       0.1250   -0.0000    0.0000
  band No.  band energies     occupation 
      1     -87.3612      2.00000
      2     -87.3611      2.00000
      3     -87.3608      2.00000
      4     -87.3608      2.00000
      5     -87.3605      2.00000
      6     -87.3605      2.00000
      7     -18.6858      2.00000
      8     -18.6845      2.00000
      9     -18.6809      2.00000
     10     -18.6800      2.00000
     11     -18.6768      2.00000
     12     -18.6746      2.00000
     13     -18.6695      2.00000
     14     -18.6682      2.00000
     15     -18.6671      2.00000
     16     -18.6655      2.00000
     17      -9.5522      2.00000
     18      -8.9616      2.00000
     19      -8.0693      2.00000
     20      -5.2269      2.00000
     21      -4.4919      2.00000
     22       1.5578      2.00000
     23       1.7416      2.00000
     24       2.2213      2.00000
     25       2.2530      2.00000
     26       2.7163      2.00000
     27       3.0932      2.00000
     28       3.2082      2.00000
     29       3.4308      2.00000
     30       3.7363      1.99434
     31       5.4600      0.00000
     32       6.1030      0.00000
     33       6.2335      0.00000
     34       6.4867      0.00000
     35       7.0918      0.00000
     36       7.3340      0.00000
     37      10.0492      0.00000
     38      10.6010      0.00000

 k-point     3 :       0.2500   -0.0000    0.0000
  band No.  band energies     occupation 
      1     -87.3612      2.00000
      2     -87.3611      2.00000
      3     -87.3606      2.00000
      4     -87.3606      2.00000
      5     -87.3605      2.00000
      6     -87.3605      2.00000
      7     -18.6907      2.00000
      8     -18.6883      2.00000
      9     -18.6757      2.00000
     10     -18.6738      2.00000
     11     -18.6726      2.00000
     12     -18.6722      2.00000
     13     -18.6704      2.00000
     14     -18.6686      2.00000
     15     -18.6677      2.00000
     16     -18.6654      2.00000
     17      -9.1625      2.00000
     18      -8.6358      2.00000
     19      -7.8974      2.00000
     20      -5.5050      2.00000
     21      -4.9637      2.00000
     22       0.4852      2.00000
     23       1.1009      2.00000
     24       1.4673      2.00000
     25       1.7238      2.00000
     26       2.2250      2.00000
     27       2.7433      2.00000
     28       3.2083      2.00000
     29       3.2437      2.00000
     30       3.8240      1.99045
     31       5.5589      0.00000
     32       6.3598      0.00000
     33       6.5459      0.00000
     34       7.1114      0.00000
     35       7.5399      0.00000
     36       8.2894      0.00000
     37       9.1607      0.00000
     38      10.7354      0.00000

 k-point     4 :       0.3750    0.0000    0.0000
  band No.  band energies     occupation 
      1     -87.3613      2.00000
      2     -87.3611      2.00000
      3     -87.3610      2.00000
      4     -87.3608      2.00000
      5     -87.3607      2.00000
      6     -87.3606      2.00000
      7     -18.6968      2.00000
      8     -18.6933      2.00000
      9     -18.6795      2.00000
     10     -18.6752      2.00000
     11     -18.6724      2.00000
     12     -18.6692      2.00000
     13     -18.6651      2.00000
     14     -18.6628      2.00000
     15     -18.6625      2.00000
     16     -18.6622      2.00000
     17      -8.5768      2.00000
     18      -8.2210      2.00000
     19      -7.7619      2.00000
     20      -5.9894      2.00000
     21      -5.5360      2.00000
     22      -0.3690      2.00000
     23       0.8612      2.00000
     24       1.2361      2.00000
     25       1.3638      2.00000
     26       1.8276      2.00000
     27       1.9909      2.00000
     28       2.8740      2.00000
     29       3.2177      2.00000
     30       3.7151      1.99579
     31       5.3919      0.00000
     32       6.4902      0.00000
     33       6.8875      0.00000
     34       7.4114      0.00000
     35       8.1247      0.00000
     36       8.6653      0.00000
     37       8.7409      0.00000
     38      10.8664      0.00000

 k-point     5 :       0.5000   -0.0000    0.0000
  band No.  band energies     occupation 
      1     -87.3614      2.00000
      2     -87.3614      2.00000
      3     -87.3612      2.00000
      4     -87.3611      2.00000
      5     -87.3607      2.00000
      6     -87.3606      2.00000
      7     -18.6995      2.00000
      8     -18.6955      2.00000
      9     -18.6810      2.00000
     10     -18.6768      2.00000
     11     -18.6728      2.00000
     12     -18.6689      2.00000
     13     -18.6630      2.00000
     14     -18.6603      2.00000
     15     -18.6599      2.00000
     16     -18.6592      2.00000
     17      -8.0182      2.00000
     18      -7.9767      2.00000
     19      -7.9701      2.00000
     20      -6.2403      2.00000
     21      -5.8626      2.00000
     22      -0.6805      2.00000
     23       1.0242      2.00000
     24       1.0305      2.00000
     25       1.2343      2.00000
     26       1.6849      2.00000
     27       1.7390      2.00000
     28       2.5587      2.00000
     29       3.1969      2.00000
     30       3.6982      1.99678
     31       5.3151      0.00000
     32       6.4390      0.00000
     33       7.2771      0.00000
     34       7.3675      0.00000
     35       8.3434      0.00000
     36       8.5602      0.00000
     37       8.5770      0.00000
     38      10.6702      0.00000

 k-point     6 :       0.1250    0.1250    0.0000
  band No.  band energies     occupation 
      1     -87.3612      2.00000
      2     -87.3610      2.00000
      3     -87.3608      2.00000
      4     -87.3605      2.00000
      5     -87.3605      2.00000
      6     -87.3603      2.00000
      7     -18.6857      2.00000
      8     -18.6843      2.00000
      9     -18.6809      2.00000
     10     -18.6798      2.00000
     11     -18.6768      2.00000
     12     -18.6747      2.00000
     13     -18.6695      2.00000
     14     -18.6680      2.00000
     15     -18.6672      2.00000
     16     -18.6654      2.00000
     17      -9.5493      2.00000
     18      -8.9694      2.00000
     19      -8.0621      2.00000
     20      -5.2345      2.00000
     21      -4.4873      2.00000
     22       1.5746      2.00000
     23       1.7894      2.00000
     24       2.2170      2.00000
     25       2.2224      2.00000
     26       2.7172      2.00000
     27       2.8538      2.00000
     28       3.2188      2.00000
     29       3.6233      1.99926
     30       3.8198      1.99028
     31       5.3743      0.00000
     32       6.0006      0.00000
     33       6.1660      0.00000
     34       6.5732      0.00000
     35       7.1699      0.00000
     36       7.3797      0.00000
     37      10.1263      0.00000
     38      10.5121      0.00000

 k-point     7 :       0.2500    0.1250    0.0000
  band No.  band energies     occupation 
      1     -87.3612      2.00000
      2     -87.3612      2.00000
      3     -87.3608      2.00000
      4     -87.3607      2.00000
      5     -87.3607      2.00000
      6     -87.3605      2.00000
      7     -18.6877      2.00000
      8     -18.6858      2.00000
      9     -18.6779      2.00000
     10     -18.6778      2.00000
     11     -18.6730      2.00000
     12     -18.6727      2.00000
     13     -18.6701      2.00000
     14     -18.6691      2.00000
     15     -18.6684      2.00000
     16     -18.6657      2.00000
     17      -9.2845      2.00000
     18      -8.7520      2.00000
     19      -7.9358      2.00000
     20      -5.4019      2.00000
     21      -4.8246      2.00000
     22       0.9333      2.00000
     23       1.1416      2.00000
     24       1.5114      2.00000
     25       1.9860      2.00000
     26       2.2621      2.00000
     27       2.4640      2.00000
     28       3.3231      2.00000
     29       3.7236      1.99523
     30       3.8552      1.99447
     31       5.6589      0.00000
     32       5.9525      0.00000
     33       6.3892      0.00000
     34       7.1440      0.00000
     35       7.6282      0.00000
     36       7.9086      0.00000
     37       9.8409      0.00000
     38       9.9260      0.00000

 k-point     8 :       0.3750    0.1250    0.0000
  band No.  band energies     occupation 
      1     -87.3613      2.00000
      2     -87.3611      2.00000
      3     -87.3605      2.00000
      4     -87.3605      2.00000
      5     -87.3605      2.00000
      6     -87.3604      2.00000
      7     -18.6916      2.00000
      8     -18.6889      2.00000
      9     -18.6767      2.00000
     10     -18.6749      2.00000
     11     -18.6734      2.00000
     12     -18.6723      2.00000
     13     -18.6693      2.00000
     14     -18.6675      2.00000
     15     -18.6636      2.00000
     16     -18.6619      2.00000
     17      -8.7912      2.00000
     18      -8.3716      2.00000
     19      -7.7667      2.00000
     20      -5.7757      2.00000
     21      -5.3883      2.00000
     22       0.1237      2.00000
     23       0.6108      2.00000
     24       1.0855      2.00000
     25       1.4070      2.00000
     26       1.7530      2.00000
     27       2.4404      2.00000
     28       3.1477      2.00000
     29       3.2428      2.00000
     30       3.6839      1.99749
     31       5.9750      0.00000
     32       6.3147      0.00000
     33       6.6180      0.00000
     34       7.4061      0.00000
     35       8.0223      0.00000
     36       8.6406      0.00000
     37       9.2868      0.00000
     38      10.4920      0.00000

 k-point     9 :       0.5000    0.1250    0.0000
  band No.  band energies     occupation 
      1     -87.3613      2.00000
      2     -87.3612      2.00000
      3     -87.3611      2.00000
      4     -87.3610      2.00000
      5     -87.3607      2.00000
      6     -87.3605      2.00000
      7     -18.6957      2.00000
      8     -18.6922      2.00000
      9     -18.6789      2.00000
     10     -18.6755      2.00000
     11     -18.6743      2.00000
     12     -18.6705      2.00000
     13     -18.6649      2.00000
     14     -18.6630      2.00000
     15     -18.6615      2.00000
     16     -18.6599      2.00000
     17      -8.1803      2.00000
     18      -8.0122      2.00000
     19      -7.7613      2.00000
     20      -6.1975      2.00000
     21      -5.8945      2.00000
     22      -0.4873      2.00000
     23       0.5721      2.00000
     24       0.8237      2.00000
     25       1.0214      2.00000
     26       1.8942      2.00000
     27       2.1996      2.00000
     28       2.6871      2.00000
     29       2.8523      2.00000
     30       3.4815      1.99998
     31       6.0966      0.00000
     32       6.5934      0.00000
     33       7.0184      0.00000
     34       7.7177      0.00000
     35       7.8757      0.00000
     36       8.7457      0.00000
     37       9.1055      0.00000
     38      10.5053      0.00000

 k-point    10 :      -0.3750    0.1250    0.0000
  band No.  band energies     occupation 
      1     -87.3614      2.00000
      2     -87.3612      2.00000
      3     -87.3611      2.00000
      4     -87.3609      2.00000
      5     -87.3606      2.00000
      6     -87.3605      2.00000
      7     -18.6957      2.00000
      8     -18.6921      2.00000
      9     -18.6789      2.00000
     10     -18.6755      2.00000
     11     -18.6743      2.00000
     12     -18.6705      2.00000
     13     -18.6649      2.00000
     14     -18.6630      2.00000
     15     -18.6615      2.00000
     16     -18.6598      2.00000
     17      -8.1979      2.00000
     18      -7.9804      2.00000
     19      -7.7737      2.00000
     20      -6.2121      2.00000
     21      -5.8812      2.00000
     22      -0.5246      2.00000
     23       0.6082      2.00000
     24       0.8364      2.00000
     25       1.1639      2.00000
     26       1.7288      2.00000
     27       2.2131      2.00000
     28       2.5246      2.00000
     29       2.9842      2.00000
     30       3.4889      1.99998
     31       6.0832      0.00000
     32       6.5298      0.00000
     33       7.2555      0.00000
     34       7.6442      0.00000
     35       7.9791      0.00000
     36       8.5679      0.00000
     37       9.0220      0.00000
     38      10.7102      0.00000

 k-point    11 :      -0.2500    0.1250    0.0000
  band No.  band energies     occupation 
      1     -87.3613      2.00000
      2     -87.3611      2.00000
      3     -87.3606      2.00000
      4     -87.3605      2.00000
      5     -87.3605      2.00000
      6     -87.3604      2.00000
      7     -18.6917      2.00000
      8     -18.6889      2.00000
      9     -18.6766      2.00000
     10     -18.6748      2.00000
     11     -18.6734      2.00000
     12     -18.6723      2.00000
     13     -18.6693      2.00000
     14     -18.6674      2.00000
     15     -18.6636      2.00000
     16     -18.6620      2.00000
     17      -8.8057      2.00000
     18      -8.3326      2.00000
     19      -7.7978      2.00000
     20      -5.7530      2.00000
     21      -5.4045      2.00000
     22       0.0446      2.00000
     23       0.7048      2.00000
     24       1.2585      2.00000
     25       1.4543      2.00000
     26       1.5616      2.00000
     27       2.2965      2.00000
     28       3.0735      2.00000
     29       3.4294      2.00000
     30       3.6675      1.99815
     31       5.9808      0.00000
     32       6.1893      0.00000
     33       6.7313      0.00000
     34       7.4819      0.00000
     35       8.1150      0.00000
     36       8.5021      0.00000
     37       9.2018      0.00000
     38      10.4668      0.00000

 k-point    12 :      -0.1250    0.1250    0.0000
  band No.  band energies     occupation 
      1     -87.3612      2.00000
      2     -87.3611      2.00000
      3     -87.3608      2.00000
      4     -87.3607      2.00000
      5     -87.3605      2.00000
[...]
     28       3.0153      2.00000
     29       3.3744      2.00000
     30       3.6053      1.99952
     31       6.1162      0.00000
     32       6.4548      0.00000
     33       6.7397      0.00000
     34       7.6750      0.00000
     35       8.5495      0.00000
     36       8.8079      0.00000
     37      10.1991      0.00000
     38      10.2732      0.00000

 k-point    59 :      -0.3750   -0.3750    0.2500
  band No.  band energies     occupation 
      1     -87.3612      2.00000
      2     -87.3610      2.00000
      3     -87.3609      2.00000
      4     -87.3608      2.00000
      5     -87.3607      2.00000
      6     -87.3605      2.00000
      7     -18.6966      2.00000
      8     -18.6932      2.00000
      9     -18.6795      2.00000
     10     -18.6754      2.00000
     11     -18.6723      2.00000
     12     -18.6691      2.00000
     13     -18.6649      2.00000
     14     -18.6630      2.00000
     15     -18.6625      2.00000
     16     -18.6621      2.00000
     17      -8.5322      2.00000
     18      -8.2993      2.00000
     19      -7.7321      2.00000
     20      -5.9357      2.00000
     21      -5.5878      2.00000
     22      -0.2464      2.00000
     23       0.5298      2.00000
     24       1.2508      2.00000
     25       1.3080      2.00000
     26       1.9471      2.00000
     27       2.1760      2.00000
     28       3.0965      2.00000
     29       3.1156      2.00000
     30       3.5632      1.99983
     31       5.5462      0.00000
     32       6.4747      0.00000
     33       6.6118      0.00000
     34       7.3427      0.00000
     35       8.0410      0.00000
     36       8.7609      0.00000
     37       9.0415      0.00000
     38      10.6508      0.00000

 k-point    60 :       0.3750    0.3750    0.3750
  band No.  band energies     occupation 
      1     -87.3614      2.00000
      2     -87.3607      2.00000
      3     -87.3605      2.00000
      4     -87.3605      2.00000
      5     -87.3602      2.00000
      6     -87.3602      2.00000
      7     -18.6842      2.00000
      8     -18.6842      2.00000
      9     -18.6828      2.00000
     10     -18.6828      2.00000
     11     -18.6783      2.00000
     12     -18.6767      2.00000
     13     -18.6674      2.00000
     14     -18.6674      2.00000
     15     -18.6654      2.00000
     16     -18.6654      2.00000
     17      -9.6234      2.00000
     18      -9.2251      2.00000
     19      -8.0028      2.00000
     20      -5.3705      2.00000
     21      -4.1317      2.00000
     22       1.9950      2.00000
     23       2.5847      2.00000
     24       2.5847      2.00000
     25       2.8526      2.00000
     26       2.8526      2.00000
     27       2.8987      2.00000
     28       3.1807      2.00000
     29       3.1807      2.00000
     30       3.9182      2.02482
     31       4.8789      0.00012
     32       6.0167      0.00000
     33       6.0167      0.00000
     34       6.4214      0.00000
     35       6.8595      0.00000
     36       6.8595      0.00000
     37      10.3357      0.00000
     38      11.1774      0.00000

 k-point    61 :       0.5000    0.3750    0.3750
  band No.  band energies     occupation 
      1     -87.3612      2.00000
      2     -87.3609      2.00000
      3     -87.3608      2.00000
      4     -87.3606      2.00000
      5     -87.3605      2.00000
      6     -87.3605      2.00000
      7     -18.6858      2.00000
      8     -18.6843      2.00000
      9     -18.6810      2.00000
     10     -18.6799      2.00000
     11     -18.6767      2.00000
     12     -18.6746      2.00000
     13     -18.6696      2.00000
     14     -18.6681      2.00000
     15     -18.6672      2.00000
     16     -18.6655      2.00000
     17      -9.4829      2.00000
     18      -9.1166      2.00000
     19      -7.9308      2.00000
     20      -5.4229      2.00000
     21      -4.3380      2.00000
     22       1.4695      2.00000
     23       1.9332      2.00000
     24       2.2945      2.00000
     25       2.3038      2.00000
     26       2.5526      2.00000
     27       2.6409      2.00000
     28       3.3204      2.00000
     29       3.6055      1.99951
     30       3.9482      2.05072
     31       5.3038      0.00000
     32       5.9338      0.00000
     33       6.1768      0.00000
     34       6.7285      0.00000
     35       7.1168      0.00000
     36       7.3649      0.00000
     37      10.1251      0.00000
     38      10.7024      0.00000

 k-point    62 :      -0.3750    0.3750    0.3750
  band No.  band energies     occupation 
      1     -87.3612      2.00000
      2     -87.3609      2.00000
      3     -87.3608      2.00000
      4     -87.3604      2.00000
      5     -87.3604      2.00000
      6     -87.3603      2.00000
      7     -18.6908      2.00000
      8     -18.6882      2.00000
      9     -18.6758      2.00000
     10     -18.6737      2.00000
     11     -18.6726      2.00000
     12     -18.6721      2.00000
     13     -18.6702      2.00000
     14     -18.6685      2.00000
     15     -18.6676      2.00000
     16     -18.6654      2.00000
     17      -9.0953      2.00000
     18      -8.7795      2.00000
     19      -7.7883      2.00000
     20      -5.5887      2.00000
     21      -4.9166      2.00000
     22       0.3737      2.00000
     23       1.1999      2.00000
     24       1.7358      2.00000
     25       1.7500      2.00000
     26       2.1918      2.00000
     27       2.4582      2.00000
     28       3.0605      2.00000
     29       3.2858      2.00000
     30       3.9708      2.07234
     31       5.3890      0.00000
     32       6.3878      0.00000
     33       6.7296      0.00000
     34       7.1990      0.00000
     35       7.7277      0.00000
     36       7.9643      0.00000
     37       9.3336      0.00000
     38      10.8170      0.00000

 k-point    63 :       0.5000    0.5000    0.3750
  band No.  band energies     occupation 
      1     -87.3612      2.00000
      2     -87.3608      2.00000
      3     -87.3607      2.00000
      4     -87.3606      2.00000
      5     -87.3606      2.00000
      6     -87.3603      2.00000
      7     -18.6858      2.00000
      8     -18.6843      2.00000
      9     -18.6810      2.00000
     10     -18.6798      2.00000
     11     -18.6766      2.00000
     12     -18.6747      2.00000
     13     -18.6695      2.00000
     14     -18.6679      2.00000
     15     -18.6673      2.00000
     16     -18.6655      2.00000
     17      -9.4781      2.00000
     18      -9.1251      2.00000
     19      -7.9246      2.00000
     20      -5.4289      2.00000
     21      -4.3351      2.00000
     22       1.4843      2.00000
     23       2.0355      2.00000
     24       2.2872      2.00000
     25       2.2908      2.00000
     26       2.4354      2.00000
     27       2.5579      2.00000
     28       3.3298      2.00000
     29       3.6816      1.99759
     30       4.0605      2.07232
     31       5.2006      0.00000
     32       5.8801      0.00000
     33       6.1142      0.00000
     34       6.7659      0.00000
     35       7.1896      0.00000
     36       7.4132      0.00000
     37      10.2097      0.00000
     38      10.5746      0.00000

 k-point    64 :      -0.3750    0.5000    0.3750
  band No.  band energies     occupation 
      1     -87.3612      2.00000
      2     -87.3609      2.00000
      3     -87.3606      2.00000
      4     -87.3606      2.00000
      5     -87.3605      2.00000
      6     -87.3605      2.00000
      7     -18.6877      2.00000
      8     -18.6857      2.00000
      9     -18.6779      2.00000
     10     -18.6777      2.00000
     11     -18.6729      2.00000
     12     -18.6726      2.00000
     13     -18.6700      2.00000
     14     -18.6689      2.00000
     15     -18.6682      2.00000
     16     -18.6656      2.00000
     17      -9.2185      2.00000
     18      -8.8921      2.00000
     19      -7.8236      2.00000
     20      -5.5242      2.00000
     21      -4.7404      2.00000
     22       0.7623      2.00000
     23       1.1150      2.00000
     24       1.7816      2.00000
     25       2.1321      2.00000
     26       2.3983      2.00000
     27       2.6976      2.00000
     28       2.7838      2.00000
     29       3.4937      1.99998
     30       3.7119      1.99599
     31       5.9320      0.00000
     32       6.3166      0.00000
     33       6.4680      0.00000
     34       7.0603      0.00000
     35       7.5485      0.00000
     36       7.6279      0.00000
     37       9.9866      0.00000
     38      10.2991      0.00000

 k-point    65 :       0.5000    0.5000    0.5000
  band No.  band energies     occupation 
      1     -87.3615      2.00000
      2     -87.3611      2.00000
      3     -87.3607      2.00000
      4     -87.3607      2.00000
      5     -87.3604      2.00000
      6     -87.3604      2.00000
      7     -18.6843      2.00000
      8     -18.6843      2.00000
      9     -18.6829      2.00000
     10     -18.6829      2.00000
     11     -18.6785      2.00000
     12     -18.6767      2.00000
     13     -18.6676      2.00000
     14     -18.6676      2.00000
     15     -18.6656      2.00000
     16     -18.6656      2.00000
     17      -9.6087      2.00000
     18      -9.2520      2.00000
     19      -7.9808      2.00000
     20      -5.4028      2.00000
     21      -4.1053      2.00000
     22       1.9623      2.00000
     23       2.5795      2.00000
     24       2.5795      2.00000
     25       2.8716      2.00000
     26       2.8716      2.00000
     27       2.9510      2.00000
     28       3.1634      2.00000
     29       3.1634      2.00000
     30       3.8737      1.99987
     31       4.9100      0.00005
     32       6.0459      0.00000
     33       6.0459      0.00000
     34       6.4108      0.00000
     35       6.8275      0.00000
     36       6.8275      0.00000
     37      10.3279      0.00000
     38      11.2145      0.00000


--------------------------------------------------------------------------------------------------------


 soft charge-density along one line, spin component           1
         0         1         2         3         4         5         6         7         8         9
 total charge-density along one line
 
 pseudopotential strength for first ion, spin component:           1
-64.812  -0.000  -0.000  12.038   0.000   0.000  -0.009  -0.042
 -0.000 -64.813  -0.000   0.000  12.038   0.000  -0.002  -0.007
 -0.000  -0.000 -64.812   0.000   0.000  12.038   0.002  -0.002
 12.038   0.000   0.000   4.119  -0.000  -0.000   0.002   0.008
  0.000  12.038   0.000  -0.000   4.119  -0.000   0.000   0.001
  0.000   0.000  12.038  -0.000  -0.000   4.119   0.000   0.000
 -0.009  -0.002   0.002   0.002   0.000   0.000 -17.243   0.001
 -0.042  -0.007  -0.002   0.008   0.001   0.000   0.001 -17.241
  0.002  -0.059   0.003  -0.000   0.010  -0.001  -0.002  -0.001
 -0.002  -0.012  -0.044   0.000   0.002   0.008   0.004  -0.002
  0.012  -0.001  -0.009  -0.002   0.000   0.002   0.002   0.004
 -0.008  -0.002   0.002   0.002   0.000   0.000 -16.750   0.000
 -0.040  -0.007  -0.002   0.007   0.001   0.000   0.000 -16.748
  0.002  -0.056   0.003  -0.000   0.009  -0.001  -0.002  -0.001
 -0.002  -0.012  -0.042   0.000   0.002   0.007   0.004  -0.002
  0.012  -0.001  -0.009  -0.001   0.000   0.002   0.002   0.004
  0.004   0.033   0.007   0.001   0.006   0.001  -0.000  -0.000
 -0.006  -0.047  -0.010  -0.001  -0.008  -0.002   0.000   0.000
 total augmentation occupancy for first ion, spin component:           1
  2.000  -0.000  -0.000   0.003   0.000   0.000   0.002   0.010  -0.001  -0.000   0.000  -0.002  -0.010   0.001   0.000  -0.000
 -0.000   2.000  -0.000   0.000   0.003   0.000  -0.000   0.001   0.009   0.001  -0.000   0.000  -0.001  -0.009  -0.001   0.000
 -0.000  -0.000   2.000   0.000   0.000   0.003   0.003  -0.000  -0.002   0.009   0.002  -0.003   0.000   0.002  -0.010  -0.002
  0.003   0.000   0.000   0.755  -0.000  -0.000  -0.084  -0.403   0.078   0.088  -0.268   0.084   0.401  -0.077  -0.087   0.263
  0.000   0.003   0.000  -0.000   0.753  -0.001   0.088   0.049   0.042   0.083   0.048  -0.087  -0.048  -0.036  -0.080  -0.047
  0.000   0.000   0.003  -0.000  -0.001   0.755  -0.354   0.088   0.131  -0.307  -0.061   0.349  -0.087  -0.130   0.307   0.061
  0.002  -0.000   0.003  -0.084   0.088  -0.354   4.713   0.200  -0.697   1.501   0.641  -2.687  -0.197   0.692  -1.491  -0.637
  0.010   0.001  -0.000  -0.403   0.049   0.088   0.200   5.629  -0.317  -0.806   1.327  -0.197  -3.591   0.315   0.801  -1.319
 -0.001   0.009  -0.002   0.078   0.042   0.131  -0.697  -0.317   3.342  -0.533  -0.379   0.692   0.315  -1.319   0.530   0.377
 -0.000   0.001   0.009   0.088   0.083  -0.307   1.501  -0.806  -0.533   4.751   0.094  -1.491   0.801   0.530  -2.719  -0.092
  0.000  -0.000   0.002  -0.268   0.048  -0.061   0.641   1.327  -0.379   0.094   3.886  -0.637  -1.319   0.377  -0.092  -1.865
 -0.002   0.000  -0.003   0.084  -0.087   0.349  -2.687  -0.197   0.692  -1.491  -0.637   2.658   0.195  -0.687   1.480   0.632
 -0.010  -0.001   0.000   0.401  -0.048  -0.087  -0.197  -3.591   0.315   0.801  -1.319   0.195   3.551  -0.313  -0.795   1.311
  0.001  -0.009   0.002  -0.077  -0.036  -0.130   0.692   0.315  -1.319   0.530   0.377  -0.687  -0.313   1.294  -0.526  -0.374
  0.000  -0.001  -0.010  -0.087  -0.080   0.307  -1.491   0.801   0.530  -2.719  -0.092   1.480  -0.795  -0.526   2.685   0.090
 -0.000   0.000  -0.002   0.263  -0.047   0.061  -0.637  -1.319   0.377  -0.092  -1.865   0.632   1.311  -0.374   0.090   1.841
  0.000   0.000   0.000  -0.007  -0.053  -0.011   0.001   0.006   0.025   0.009   0.001  -0.001  -0.006  -0.026  -0.010  -0.001
 -0.000  -0.000  -0.000   0.003   0.028   0.006   0.000   0.000   0.002   0.001   0.000  -0.000  -0.001  -0.002  -0.001  -0.000


------------------------ aborting loop because EDIFF is reached ----------------------------------------


    CHARGE:  cpu time    0.5146: real time    0.5145
    FORLOC:  cpu time    0.0042: real time    0.0042
    FORNL :  cpu time    1.7301: real time    1.7291
    STRESS:  cpu time    5.1929: real time    5.1902
    FORCOR:  cpu time    0.0565: real time    0.0565
    FORHAR:  cpu time    0.0150: real time    0.0150
    MIXING:  cpu time    0.0027: real time    0.0027
    OFIELD:  cpu time    0.0001: real time    0.0001

  FORCE on cell =-STRESS in cart. coord.  units (eV):
  Direction    XX          YY          ZZ          XY          YZ          ZX
  --------------------------------------------------------------------------------------
  Alpha Z   200.08717   200.08717   200.08717
  Ewald   -1305.20316 -1263.56372 -2720.58875   -38.23114  -183.32754  -308.58370
  Hartree  1595.57483  1631.64612   369.44456   -33.11902  -158.81410  -267.32197
  E(xc)    -308.30778  -308.30699  -308.33482    -0.00073    -0.00350    -0.00589
  Local   -1953.96570 -2031.65111   686.71250    71.32747   342.03303   575.72290
  n-local   347.82916   348.38861   347.56814     0.02116    -0.74279     0.13924
  augment   506.40919   506.40751   506.45958     0.00137     0.00655     0.01102
  Kinetic   911.13215   921.91271   917.92271     1.57729    -1.29683     1.49364
  Fock        0.00000     0.00000     0.00000     0.00000     0.00000     0.00000
  -------------------------------------------------------------------------------------
  Total      -0.75862    -0.75932    -0.73480     0.00064     0.00309     0.00519
  in kB      -7.99087    -7.99825    -7.73998     0.00678     0.03250     0.05470
  external pressure =       -7.91 kB  Pullay stress =        0.00 kB


 VOLUME and BASIS-vectors are now :
 -----------------------------------------------------------------------------
  energy-cutoff  :      441.00
  volume of cell :      152.10
      direct lattice vectors                 reciprocal lattice vectors
     4.106034000  0.000000000  9.416603000     0.243544014 -0.132627638  0.000000000
     1.963734000  3.606003000  9.416603000     0.000000000  0.277315354  0.000000000
     0.000000000  0.000000000 10.272873000    -0.223244003 -0.132627629  0.097343752

  length of vectors
    10.272873370 10.272873061 10.272873000     0.277315302  0.277315354  0.277315306


 FORCES acting on ions
    electron-ion (+dipol)            ewald-force                    non-local-force                 convergence-correction
 -----------------------------------------------------------------------------------------------
   -.100E+03 -.596E+02 -.481E+03   0.990E+02 0.588E+02 0.475E+03   0.142E+01 0.841E+00 0.679E+01   0.915E-03 0.543E-03 0.439E-02
   0.100E+03 0.596E+02 0.481E+03   -.990E+02 -.588E+02 -.475E+03   -.142E+01 -.841E+00 -.679E+01   -.915E-03 -.543E-03 -.439E-02
   -.510E-14 0.815E-15 -.260E-13   -.533E-14 -.107E-13 0.853E-13   -.165E-23 0.000E+00 -.265E-22   -.149E-12 -.984E-13 -.726E-12
   0.602E+02 0.357E+02 0.288E+03   -.608E+02 -.361E+02 -.291E+03   0.622E+00 0.370E+00 0.298E+01   0.295E-03 0.175E-03 0.141E-02
   -.602E+02 -.357E+02 -.288E+03   0.608E+02 0.361E+02 0.291E+03   -.622E+00 -.370E+00 -.298E+01   -.295E-03 -.175E-03 -.141E-02
 -----------------------------------------------------------------------------------------------
   0.106E-11 -.329E-11 0.192E-10   0.355E-13 0.000E+00 0.568E-13   0.222E-15 -.111E-15 -.888E-15   -.575E-12 -.340E-12 -.251E-11
 
 
 POSITION                                       TOTAL-FORCE (eV/Angst)
 -----------------------------------------------------------------------------------
      2.41841      1.43676     11.59688         0.006567      0.003902      0.031492
      3.65136      2.16925     17.50920        -0.006567     -0.003902     -0.031492
      0.00000      0.00000      0.00000        -0.000000      0.000000     -0.000000
      1.30934      0.77787      6.27862         0.015709      0.009333      0.075330
      4.76043      2.82813     22.82746        -0.015709     -0.009333     -0.075330
 -----------------------------------------------------------------------------------
    total drift:                                0.000000     -0.000000      0.000000


--------------------------------------------------------------------------------------------------------



  FREE ENERGIE OF THE ION-ELECTRON SYSTEM (eV)
  ---------------------------------------------------
  free  energy   TOTEN  =       -20.15446019 eV

  energy  without entropy=      -20.15418978  energy(sigma->0) =      -20.15439259
 


--------------------------------------------------------------------------------------------------------


    POTLOK:  cpu time    0.0585: real time    0.0585


--------------------------------------------------------------------------------------------------------


 writing wavefunctions
     LOOP+:  cpu time  101.1538: real time  104.1529
    4ORBIT:  cpu time    0.0000: real time    0.0000

 total amount of memory used by VASP on root node    48516. kBytes
========================================================================

   base      :      30000. kBytes
   nonlr-proj:       1631. kBytes
   fftplans  :       3114. kBytes
   grid      :       5102. kBytes
   one-center:         15. kBytes
   wavefun   :       8654. kBytes
 
  
  
 General timing and accounting informations for this job:
 ========================================================
  
                  Total CPU time used (sec):      104.586
                            User time (sec):      103.465
                          System time (sec):        1.121
                         Elapsed time (sec):      108.745
  
                   Maximum memory used (kb):       70228.
                   Average memory used (kb):           0.
  
                          Minor page faults:        36481
                          Major page faults:           11
                 Voluntary context switches:         5374
