 vasp.5.4.1 24Jun15 (build Jun 17 2016 15:57:28) complex                        
  
 executed on           IFC91_ompi date 2016.12.07  19:38:11
 running on   15 total cores
 distrk:  each k-point on   15 cores,    1 groups
 distr:  one band on NCORES_PER_BAND=  15 cores,    1 groups


--------------------------------------------------------------------------------------------------------


 INCAR:
 POTCAR:    PAW_PBE Li 17Jan2003                  
 POTCAR:   PAW_PBE O 08Apr2002                    
 POTCAR:    PAW_PBE P 17Jan2003                   
 POTCAR:   PAW_PBE Fe 06Sep2000                   

 ----------------------------------------------------------------------------- 
|                                                                             |
|           W    W    AA    RRRRR   N    N  II  N    N   GGGG   !!!           |
|           W    W   A  A   R    R  NN   N  II  NN   N  G    G  !!!           |
|           W    W  A    A  R    R  N N  N  II  N N  N  G       !!!           |
|           W WW W  AAAAAA  RRRRR   N  N N  II  N  N N  G  GGG   !            |
|           WW  WW  A    A  R   R   N   NN  II  N   NN  G    G                |
|           W    W  A    A  R    R  N    N  II  N    N   GGGG   !!!           |
|                                                                             |
|      For optimal performance we recommend to set                            |
|        NCORE= 4 - approx SQRT( number of cores)                             |
|      NCORE specifies how many cores store one orbital (NPAR=cpu/NCORE).     |
|      This setting can  greatly improve the performance of VASP for DFT.     |
|      The default, NPAR=number of cores might be grossly inefficient         |
|      on modern multi-core architectures or massively parallel machines.     |
|      Do your own testing !!!!                                               |
|      Unfortunately you need to use the default for GW and RPA calculations. |
|      (for HF NCORE is supported but not extensively tested yet)             |
|                                                                             |
 ----------------------------------------------------------------------------- 

 POTCAR:    PAW_PBE Li 17Jan2003                  
   VRHFIN =Li: s1p0                                                             
   LEXCH  = PE                                                                  
   EATOM  =     5.3001 eV,     .3895 Ry                                         
                                                                                
   TITEL  = PAW_PBE Li 17Jan2003                                                
   LULTRA =        F    use ultrasoft PP ?                                      
   IUNSCR =        1    unscreen: 0-lin 1-nonlin 2-no                           
   RPACOR =    1.500    partial core radius                                     
   POMASS =    7.010; ZVAL   =    1.000    mass and valenz                      
   RCORE  =    2.050    outmost cutoff radius                                   
   RWIGS  =    2.600; RWIGS  =    1.376    wigner-seitz radius (au A)           
   ENMAX  =  140.000; ENMIN  =  100.000 eV                                      
   ICORE  =        2    local potential                                         
   LCOR   =        T    correct aug charges                                     
   LPAW   =        T    paw PP                                                  
   EAUG   =  331.638                                                            
   DEXC   =    -.010                                                            
   RMAX   =    4.263    core radius for proj-oper                               
   RAUG   =    1.300    factor for augmentation sphere                          
   RDEP   =    2.094    radius for radial grids                                 
   QCUT   =   -2.932; QGAM   =    5.865    optimization parameters              
                                                                                
   Description                                                                  
     l     E      TYP  RCUT    TYP  RCUT                                        
     0   .000     23  2.050                                                     
     0  2.000     23  2.050                                                     
     1   .000     23  2.050                                                     
     2   .000     23  2.050                                                     
  local pseudopotential read in
  partial core-charges read in
  atomic valenz-charges read in
  non local Contribution for L=           0  read in
    real space projection operators read in
  non local Contribution for L=           0  read in
    real space projection operators read in
  non local Contribution for L=           1  read in
    real space projection operators read in
    PAW grid and wavefunctions read in
 
   number of l-projection  operators is LMAX  =           3
   number of lm-projection operators is LMMAX =           5
 
 POTCAR:   PAW_PBE O 08Apr2002                    
   VRHFIN =O: s2p4                                                              
   LEXCH  = PE                                                                  
   EATOM  =   432.3788 eV,   31.7789 Ry                                         
                                                                                
   TITEL  = PAW_PBE O 08Apr2002                                                 
   LULTRA =        F    use ultrasoft PP ?                                      
   IUNSCR =        0    unscreen: 0-lin 1-nonlin 2-no                           
   RPACOR =     .000    partial core radius                                     
   POMASS =   16.000; ZVAL   =    6.000    mass and valenz                      
   RCORE  =    1.520    outmost cutoff radius                                   
   RWIGS  =    1.550; RWIGS  =     .820    wigner-seitz radius (au A)           
   ENMAX  =  400.000; ENMIN  =  300.000 eV                                      
   ICORE  =        2    local potential                                         
   LCOR   =        T    correct aug charges                                     
   LPAW   =        T    paw PP                                                  
   EAUG   =  605.392                                                            
   DEXC   =     .000                                                            
   RMAX   =    2.264    core radius for proj-oper                               
   RAUG   =    1.300    factor for augmentation sphere                          
   RDEP   =    1.550    radius for radial grids                                 
   QCUT   =   -5.520; QGAM   =   11.041    optimization parameters              
                                                                                
   Description                                                                  
     l     E      TYP  RCUT    TYP  RCUT                                        
     0   .000     23  1.200                                                     
     0  -.700     23  1.200                                                     
     1   .000     23  1.520                                                     
     1   .600     23  1.520                                                     
     2   .000      7  1.500                                                     
  local pseudopotential read in
  atomic valenz-charges read in
  non local Contribution for L=           0  read in
    real space projection operators read in
  non local Contribution for L=           0  read in
    real space projection operators read in
  non local Contribution for L=           1  read in
    real space projection operators read in
  non local Contribution for L=           1  read in
    real space projection operators read in
    PAW grid and wavefunctions read in
 
   number of l-projection  operators is LMAX  =           4
   number of lm-projection operators is LMMAX =           8
 
 POTCAR:    PAW_PBE P 17Jan2003                   
   VRHFIN =P : s2p3                                                             
   LEXCH  = PE                                                                  
   EATOM  =   176.0430 eV,   12.9388 Ry                                         
                                                                                
   TITEL  = PAW_PBE P 17Jan2003                                                 
   LULTRA =        F    use ultrasoft PP ?                                      
   IUNSCR =        1    unscreen: 0-lin 1-nonlin 2-no                           
   RPACOR =    1.500    partial core radius                                     
   POMASS =   30.974; ZVAL   =    5.000    mass and valenz                      
   RCORE  =    1.900    outmost cutoff radius                                   
   RWIGS  =    2.330; RWIGS  =    1.233    wigner-seitz radius (au A)           
   ENMAX  =  270.000; ENMIN  =  191.280 eV                                      
   ICORE  =        2    local potential                                         
   LCOR   =        T    correct aug charges                                     
   LPAW   =        T    paw PP                                                  
   EAUG   =  342.924                                                            
   DEXC   =    -.002                                                            
   RMAX   =    2.887    core radius for proj-oper                               
   RAUG   =    1.300    factor for augmentation sphere                          
   RDEP   =    1.931    radius for radial grids                                 
   QCUT   =   -4.330; QGAM   =    8.659    optimization parameters              
                                                                                
   Description                                                                  
     l     E      TYP  RCUT    TYP  RCUT                                        
     0   .000     23  1.900                                                     
     0   .000     23  1.900                                                     
     1   .000     23  1.900                                                     
     1   .000     23  1.900                                                     
     2   .000     23  1.900                                                     
  local pseudopotential read in
  partial core-charges read in
  atomic valenz-charges read in
  non local Contribution for L=           0  read in
    real space projection operators read in
  non local Contribution for L=           0  read in
    real space projection operators read in
  non local Contribution for L=           1  read in
    real space projection operators read in
  non local Contribution for L=           1  read in
    real space projection operators read in
    PAW grid and wavefunctions read in
 
   number of l-projection  operators is LMAX  =           4
   number of lm-projection operators is LMMAX =           8
 
 POTCAR:   PAW_PBE Fe 06Sep2000                   
   VRHFIN =Fe:  d7 s1                                                           
   LEXCH  = PE                                                                  
   EATOM  =   594.4687 eV,   43.6922 Ry                                         
                                                                                
   TITEL  = PAW_PBE Fe 06Sep2000                                                
   LULTRA =        F    use ultrasoft PP ?                                      
   IUNSCR =        1    unscreen: 0-lin 1-nonlin 2-no                           
   RPACOR =    2.000    partial core radius                                     
   POMASS =   55.847; ZVAL   =    8.000    mass and valenz                      
   RCORE  =    2.300    outmost cutoff radius                                   
   RWIGS  =    2.460; RWIGS  =    1.302    wigner-seitz radius (au A)           
   ENMAX  =  267.883; ENMIN  =  200.912 eV                                      
   RCLOC  =    1.701    cutoff for local pot                                    
   LCOR   =        T    correct aug charges                                     
   LPAW   =        T    paw PP                                                  
   EAUG   =  511.368                                                            
   DEXC   =    -.022                                                            
   RMAX   =    2.817    core radius for proj-oper                               
   RAUG   =    1.300    factor for augmentation sphere                          
   RDEP   =    2.442    radius for radial grids                                 
   QCUT   =   -4.437; QGAM   =    8.874    optimization parameters              
                                                                                
   Description                                                                  
     l     E      TYP  RCUT    TYP  RCUT                                        
     2   .000     23  2.300                                                     
     2   .000     23  2.300                                                     
     0   .000     23  2.300                                                     
     0   .000     23  2.300                                                     
     1  -.200     23  2.300                                                     
     1   .000     23  2.300                                                     
     3   .000      7   .000                                                     
  local pseudopotential read in
  partial core-charges read in
  atomic valenz-charges read in
  non local Contribution for L=           2  read in
    real space projection operators read in
  non local Contribution for L=           2  read in
    real space projection operators read in
  non local Contribution for L=           0  read in
    real space projection operators read in
  non local Contribution for L=           0  read in
    real space projection operators read in
  non local Contribution for L=           1  read in
    real space projection operators read in
  non local Contribution for L=           1  read in
    real space projection operators read in
    PAW grid and wavefunctions read in
 
   number of l-projection  operators is LMAX  =           6
   number of lm-projection operators is LMMAX =          18
 
 Optimization of the real space projectors (new method)

 maximal supplied QI-value         = 18.33
 optimisation between [QCUT,QGAM] = [ 10.63, 21.45] = [ 31.65,128.80] Ry 
 Optimized for a Real-space Cutoff    1.13 Angstroem

   l    n(q)    QCUT    max X(q) W(low)/X(q) W(high)/X(q)  e(spline) 
   0      7    10.632    30.666    0.45E-04    0.40E-04    0.12E-07
   0      7    10.632    39.284    0.21E-03    0.37E-03    0.66E-07
   1      7    10.632     4.214    0.48E-03    0.63E-04    0.43E-07
 Optimization of the real space projectors (new method)

 maximal supplied QI-value         = 24.76
 optimisation between [QCUT,QGAM] = [ 10.64, 21.29] = [ 31.73,126.92] Ry 
 Optimized for a Real-space Cutoff    1.24 Angstroem

   l    n(q)    QCUT    max X(q) W(low)/X(q) W(high)/X(q)  e(spline) 
   0      8    10.645     4.192    0.70E-04    0.97E-04    0.61E-07
   0      8    10.645     8.473    0.43E-03    0.71E-03    0.17E-06
   1      7    10.645     2.474    0.95E-04    0.12E-03    0.31E-07
   1      7    10.645     3.912    0.31E-03    0.57E-03    0.16E-06
 Optimization of the real space projectors (new method)

 maximal supplied QI-value         = 19.84
 optimisation between [QCUT,QGAM] = [ 10.71, 21.43] = [ 32.15,128.60] Ry 
 Optimized for a Real-space Cutoff    1.20 Angstroem

   l    n(q)    QCUT    max X(q) W(low)/X(q) W(high)/X(q)  e(spline) 
   0      8    10.715     6.651    0.19E-04    0.13E-04    0.49E-08
   0      8    10.715    90.285    0.29E-03    0.24E-04    0.62E-07
   1      7    10.715     4.328    0.49E-04    0.39E-04    0.16E-07
   1      7    10.715    54.583    0.22E-03    0.53E-03    0.76E-07
 Optimization of the real space projectors (new method)

 maximal supplied QI-value         = 16.25
 optimisation between [QCUT,QGAM] = [ 10.73, 21.45] = [ 32.22,128.87] Ry 
 Optimized for a Real-space Cutoff    1.39 Angstroem

   l    n(q)    QCUT    max X(q) W(low)/X(q) W(high)/X(q)  e(spline) 
   2      8    10.726     4.378    0.63E-04    0.18E-04    0.44E-07
   2      8    10.726    23.237    0.16E-03    0.54E-03    0.20E-06
   0      9    10.726    17.641    0.27E-04    0.11E-04    0.53E-08
   0      9    10.726    50.908    0.30E-03    0.17E-03    0.46E-07
   1      8    10.726     6.148    0.30E-04    0.44E-04    0.30E-07
   1      8    10.726     8.345    0.17E-03    0.14E-03    0.14E-06
  PAW_PBE Li 17Jan2003                  :
 energy of atom  1       EATOM=   -5.3001
 kinetic energy error for atom=    0.0000 (will be added to EATOM!!)
 PAW_PBE O 08Apr2002                    :
 energy of atom  2       EATOM= -432.3788
 kinetic energy error for atom=    0.0450 (will be added to EATOM!!)
  PAW_PBE P 17Jan2003                   :
 energy of atom  3       EATOM= -176.0430
 kinetic energy error for atom=    0.0019 (will be added to EATOM!!)
 PAW_PBE Fe 06Sep2000                   :
 energy of atom  4       EATOM= -594.4687
 kinetic energy error for atom=    0.0038 (will be added to EATOM!!)
 
 
 POSCAR: i2a=[Li,O,P,Fe] ; LiFePO4.n3Li1v1.ion_re
  positions in direct lattice
  No initial velocities read in
 exchange correlation table for  LEXCH =        8
   RHO(1)=    0.500       N(1)  =     2000
   RHO(2)=  100.500       N(2)  =     4000
 


--------------------------------------------------------------------------------------------------------


 ion  position               nearest neighbor table
   1  0.000  0.000  0.000-   8 2.11  14 2.11   7 2.20   4 2.20   6 2.22  10 2.22  20 2.69  23 2.69

   2  0.500  0.500  0.500-  15 2.11  16 2.11   9 2.20  17 2.20  12 2.22  11 2.22  21 2.69  22 2.69
                             3 3.04   3 3.04
   3  0.500  0.000  0.500-  15 2.11  16 2.11   9 2.20  17 2.20  13 2.22  18 2.22  21 2.69  22 2.69
                             2 3.04   2 3.04
   4  0.097  0.250  0.743-  20 1.54   1 2.20  26 2.23
   5  0.834  0.547  0.714-  23 1.57  24 2.10  25 2.27
   6  0.834  0.953  0.714-  23 1.57  24 2.10   1 2.22  25 2.27
   7  0.903  0.750  0.257-  23 1.54   1 2.20  25 2.23
   8  0.043  0.750  0.706-  23 1.55   1 2.11  27 2.14
   9  0.403  0.750  0.243-  21 1.54   3 2.20   2 2.20  27 2.23
  10  0.166  0.047  0.286-  20 1.57  27 2.10   1 2.22  26 2.27
  11  0.666  0.453  0.214-  22 1.57  25 2.10   2 2.22  24 2.27
  12  0.334  0.547  0.786-  21 1.57  26 2.10   2 2.22  27 2.27
  13  0.334  0.953  0.786-  21 1.57  26 2.10   3 2.22  27 2.27
  14  0.957  0.250  0.294-  20 1.55   1 2.11  24 2.14
  15  0.457  0.250  0.206-  22 1.55   3 2.11   2 2.11  26 2.14
  16  0.543  0.750  0.794-  21 1.55   3 2.11   2 2.11  25 2.14
  17  0.597  0.250  0.757-  22 1.54   3 2.20   2 2.20  24 2.23
  18  0.666  0.047  0.214-  22 1.57  25 2.10   3 2.22  24 2.27
  19  0.166  0.453  0.286-  20 1.57  27 2.10  26 2.27
  20  0.095  0.250  0.419-   4 1.54  14 1.55  10 1.57  19 1.57   1 2.69  26 2.87
  21  0.405  0.750  0.919-   9 1.54  16 1.55  12 1.57  13 1.57   2 2.69   3 2.69  27 2.87
  22  0.595  0.250  0.081-  17 1.54  15 1.55  11 1.57  18 1.57   2 2.69   3 2.69  24 2.87
  23  0.905  0.750  0.581-   7 1.54   8 1.55   5 1.57   6 1.57   1 2.69  25 2.87
  24  0.782  0.250  0.524-   6 2.10   5 2.10  14 2.14  17 2.23  11 2.27  18 2.27  22 2.87
  25  0.718  0.750  0.024-  11 2.10  18 2.10  16 2.14   7 2.23   5 2.27   6 2.27  23 2.87
  26  0.282  0.250  0.976-  13 2.10  12 2.10  15 2.14   4 2.23  10 2.27  19 2.27  20 2.87
  27  0.218  0.750  0.476-  10 2.10  19 2.10   8 2.14   9 2.23  12 2.27  13 2.27  21 2.87
 
  LATTYP: Found a simple orthorhombic cell.
 ALAT       =     4.7519550000
 B/A-ratio  =     1.2810203379
 C/A-ratio  =     2.1992354726
  
  Lattice vectors:
  
 A1 = (   0.0000000000,   0.0000000000,  -4.7519550000)
 A2 = (   0.0000000000,  -6.0873510000,   0.0000000000)
 A3 = ( -10.4506680000,   0.0000000000,   0.0000000000)


Analysis of symmetry for initial positions (statically):
=====================================================================
 Subroutine PRICEL returns:
 Original cell was already a primitive cell.
 

 Routine SETGRP: Setting up the symmetry group for a 
 simple orthorhombic supercell.


 Subroutine GETGRP returns: Found  2 space group operations
 (whereof  2 operations were pure point group operations)
 out of a pool of  8 trial point group operations.


The static configuration has the point symmetry S_2 .


Analysis of symmetry for dynamics (positions and initial velocities):
=====================================================================
 Subroutine PRICEL returns:
 Original cell was already a primitive cell.
 

 Routine SETGRP: Setting up the symmetry group for a 
 simple orthorhombic supercell.


 Subroutine GETGRP returns: Found  2 space group operations
 (whereof  2 operations were pure point group operations)
 out of a pool of  8 trial point group operations.


The dynamic configuration has the point symmetry S_2 .
 
 
 KPOINTS: Automatic Mesh                          

Automatic generation of k-mesh.
Space group operators:
 irot       det(A)        alpha          n_x          n_y          n_z        tau_x        tau_y        tau_z
    1     1.000000     0.000000     1.000000     0.000000     0.000000     0.000000     0.000000     0.000000
    2    -1.000000     0.000000     1.000000     0.000000     0.000000     0.000000     0.000000     0.000000
 
 Subroutine IBZKPT returns following result:
 ===========================================
 
 Found     46 irreducible k-points:
 
 Following reciprocal coordinates:
            Coordinates               Weight
  0.000000  0.000000  0.000000      1.000000
  0.333333  0.000000  0.000000      2.000000
  0.000000  0.200000  0.000000      2.000000
  0.333333  0.200000  0.000000      2.000000
 -0.333333  0.200000  0.000000      2.000000
  0.000000  0.400000  0.000000      2.000000
  0.333333  0.400000  0.000000      2.000000
 -0.333333  0.400000  0.000000      2.000000
  0.000000  0.000000  0.166667      2.000000
  0.333333  0.000000  0.166667      2.000000
 -0.333333  0.000000  0.166667      2.000000
  0.000000  0.200000  0.166667      2.000000
  0.333333  0.200000  0.166667      2.000000
 -0.333333  0.200000  0.166667      2.000000
  0.000000  0.400000  0.166667      2.000000
  0.333333  0.400000  0.166667      2.000000
 -0.333333  0.400000  0.166667      2.000000
  0.000000 -0.400000  0.166667      2.000000
  0.333333 -0.400000  0.166667      2.000000
 -0.333333 -0.400000  0.166667      2.000000
  0.000000 -0.200000  0.166667      2.000000
  0.333333 -0.200000  0.166667      2.000000
 -0.333333 -0.200000  0.166667      2.000000
  0.000000  0.000000  0.333333      2.000000
  0.333333  0.000000  0.333333      2.000000
 -0.333333  0.000000  0.333333      2.000000
  0.000000  0.200000  0.333333      2.000000
  0.333333  0.200000  0.333333      2.000000
 -0.333333  0.200000  0.333333      2.000000
  0.000000  0.400000  0.333333      2.000000
  0.333333  0.400000  0.333333      2.000000
 -0.333333  0.400000  0.333333      2.000000
  0.000000 -0.400000  0.333333      2.000000
  0.333333 -0.400000  0.333333      2.000000
 -0.333333 -0.400000  0.333333      2.000000
  0.000000 -0.200000  0.333333      2.000000
  0.333333 -0.200000  0.333333      2.000000
 -0.333333 -0.200000  0.333333      2.000000
  0.000000  0.000000  0.500000      1.000000
  0.333333  0.000000  0.500000      2.000000
  0.000000  0.200000  0.500000      2.000000
  0.333333  0.200000  0.500000      2.000000
 -0.333333  0.200000  0.500000      2.000000
  0.000000  0.400000  0.500000      2.000000
  0.333333  0.400000  0.500000      2.000000
 -0.333333  0.400000  0.500000      2.000000
 
 Following cartesian coordinates:
            Coordinates               Weight
  0.000000  0.000000  0.000000      1.000000
  0.031896  0.000000  0.000000      2.000000
  0.000000  0.032855  0.000000      2.000000
  0.031896  0.032855  0.000000      2.000000
 -0.031896  0.032855  0.000000      2.000000
  0.000000  0.065710  0.000000      2.000000
  0.031896  0.065710  0.000000      2.000000
 -0.031896  0.065710  0.000000      2.000000
  0.000000  0.000000  0.035073      2.000000
  0.031896  0.000000  0.035073      2.000000
 -0.031896  0.000000  0.035073      2.000000
  0.000000  0.032855  0.035073      2.000000
  0.031896  0.032855  0.035073      2.000000
 -0.031896  0.032855  0.035073      2.000000
  0.000000  0.065710  0.035073      2.000000
  0.031896  0.065710  0.035073      2.000000
 -0.031896  0.065710  0.035073      2.000000
  0.000000 -0.065710  0.035073      2.000000
  0.031896 -0.065710  0.035073      2.000000
 -0.031896 -0.065710  0.035073      2.000000
  0.000000 -0.032855  0.035073      2.000000
  0.031896 -0.032855  0.035073      2.000000
 -0.031896 -0.032855  0.035073      2.000000
  0.000000  0.000000  0.070147      2.000000
  0.031896  0.000000  0.070147      2.000000
 -0.031896  0.000000  0.070147      2.000000
  0.000000  0.032855  0.070147      2.000000
  0.031896  0.032855  0.070147      2.000000
 -0.031896  0.032855  0.070147      2.000000
  0.000000  0.065710  0.070147      2.000000
  0.031896  0.065710  0.070147      2.000000
 -0.031896  0.065710  0.070147      2.000000
  0.000000 -0.065710  0.070147      2.000000
  0.031896 -0.065710  0.070147      2.000000
 -0.031896 -0.065710  0.070147      2.000000
  0.000000 -0.032855  0.070147      2.000000
  0.031896 -0.032855  0.070147      2.000000
 -0.031896 -0.032855  0.070147      2.000000
  0.000000  0.000000  0.105220      1.000000
  0.031896  0.000000  0.105220      2.000000
  0.000000  0.032855  0.105220      2.000000
  0.031896  0.032855  0.105220      2.000000
 -0.031896  0.032855  0.105220      2.000000
  0.000000  0.065710  0.105220      2.000000
  0.031896  0.065710  0.105220      2.000000
 -0.031896  0.065710  0.105220      2.000000
 


--------------------------------------------------------------------------------------------------------




 Dimension of arrays:
   k-points           NKPTS =     46   k-points in BZ     NKDIM =     46   number of bands    NBANDS=     95
   number of dos      NEDOS =    301   number of ions     NIONS =     27
   non local maximal  LDIM  =      6   non local SUM 2l+1 LMDIM =     18
   total plane-waves  NPLWV =  41472
   max r-space proj   IRMAX =   1609   max aug-charges    IRDMAX=   5086
   dimension x,y,z NGX =    54 NGY =   32 NGZ =   24
   dimension x,y,z NGXF=   108 NGYF=   64 NGZF=   48
   support grid    NGXF=   108 NGYF=   64 NGZF=   48
   ions per type =               3  16   4   4
 NGX,Y,Z   is equivalent  to a cutoff of   8.59,  8.74,  8.40 a.u.
 NGXF,Y,Z  is equivalent  to a cutoff of  17.18, 17.48, 16.79 a.u.


 I would recommend the setting:
   dimension x,y,z NGX =    54 NGY =   31 NGZ =   24
 SYSTEM =  Final conf. for neb from mp-19017       
 POSCAR =  i2a=[Li,O,P,Fe] ; LiFePO4.n3Li1v1.ion_re

 Startparameter for this run:
   NWRITE =      2    write-flag & timer
   PREC   = normal    normal or accurate (medium, high low for compatibility)
   ISTART =      0    job   : 0-new  1-cont  2-samecut
   ICHARG =      2    charge: 1-file 2-atom 10-const
   ISPIN  =      1    spin polarized calculation?
   LNONCOLLINEAR =      F non collinear calculations
   LSORBIT =      F    spin-orbit coupling
   INIWAV =      1    electr: 0-lowe 1-rand  2-diag
   LASPH  =      F    aspherical Exc in radial PAW
   METAGGA=      F    non-selfconsistent MetaGGA calc.

 Electronic Relaxation 1
   ENCUT  =  441.0 eV  32.41 Ry    5.69 a.u.  17.89 10.42  8.14*2*pi/ulx,y,z
   ENINI  =  441.0     initial cutoff
   ENAUG  =  776.2 eV  augmentation charge cutoff
   NELM   =     50;   NELMIN=  4; NELMDL= -5     # of ELM steps 
   EDIFF  = 0.6E-05   stopping-criterion for ELM
   LREAL  =      T    real-space projection
   NLSPLINE    = F    spline interpolate recip. space projectors
   LCOMPAT=      F    compatible to vasp.4.4
   GGA_COMPAT  = T    GGA compatible to vasp.4.4-vasp.4.6
   LMAXPAW     = -100 max onsite density
   LMAXMIX     =    2 max onsite mixed and CHGCAR
   VOSKOWN=      0    Vosko Wilk Nusair interpolation
   ROPT   =   -0.00050  -0.00050  -0.00050  -0.00050
 Ionic relaxation
   EDIFFG = -.3E-01   stopping-criterion for IOM
   NSW    =     20    number of steps for IOM
   NBLOCK =      1;   KBLOCK =     20    inner block; outer block 
   IBRION =      1    ionic relax: 0-MD 1-quasi-New 2-CG
   NFREE  =      0    steps in history (QN), initial steepest desc. (CG)
   ISIF   =      2    stress and relaxation
   IWAVPR =     11    prediction:  0-non 1-charg 2-wave 3-comb
   ISYM   =      2    0-nonsym 1-usesym 2-fastsym
   LCORR  =      T    Harris-Foulkes like correction to forces

   POTIM  = 0.5000    time-step for ionic-motion
   TEIN   =    0.0    initial temperature
   TEBEG  =    0.0;   TEEND  =   0.0 temperature during run
   SMASS  =  -3.00    Nose mass-parameter (am)
   estimated Nose-frequenzy (Omega)   =  0.10E-29 period in steps =****** mass=  -0.250E-26a.u.
   SCALEE = 1.0000    scale energy and forces
   NPACO  =    256;   APACO  = 16.0  distance and # of slots for P.C.
   PSTRESS=    0.0 pullay stress

  Mass of Ions in am
   POMASS =   7.01 16.00 30.97 55.85
  Ionic Valenz
   ZVAL   =   1.00  6.00  5.00  8.00
  Atomic Wigner-Seitz radii
   RWIGS  =  -1.00 -1.00 -1.00 -1.00
  virtual crystal weights 
   VCA    =   1.00  1.00  1.00  1.00
   NELECT =     151.0000    total number of electrons
   NUPDOWN=      -1.0000    fix difference up-down

 DOS related values:
   EMIN   =  10.00;   EMAX   =-10.00  energy-range for DOS
   EFERMI =   0.00
   ISMEAR =     2;   SIGMA  =   0.20  broadening in eV -4-tet -1-fermi 0-gaus

 Electronic relaxation 2 (details)
   IALGO  =     38    algorithm
   LDIAG  =      T    sub-space diagonalisation (order eigenvalues)
   LSUBROT=      F    optimize rotation matrix (better conditioning)
   TURBO    =      0    0=normal 1=particle mesh
   IRESTART =      0    0=no restart 2=restart with 2 vectors
   NREBOOT  =      0    no. of reboots
   NMIN     =      0    reboot dimension
   EREF     =   0.00    reference energy to select bands
   IMIX   =      4    mixing-type and parameters
     AMIX     =   0.40;   BMIX     =  1.00
     AMIX_MAG =   1.60;   BMIX_MAG =  1.00
     AMIN     =   0.10
     WC   =   100.;   INIMIX=   1;  MIXPRE=   1;  MAXMIX=  40

 Intra band minimization:
   WEIMIN = 0.0010     energy-eigenvalue tresh-hold
   EBREAK =  0.16E-07  absolut break condition
   DEPER  =   0.30     relativ break condition  

   TIME   =   0.40     timestep for ELM

  volume/ion in A,a.u.               =      11.20        75.56
  Fermi-wavevector in a.u.,A,eV,Ry     =   1.298929  2.454621 22.955992  1.687218
  Thomas-Fermi vector in A             =   2.430226
 
 Write flags
   LWAVE  =      T    write WAVECAR
   LCHARG =      T    write CHGCAR
   LVTOT  =      F    write LOCPOT, total local potential
   LVHAR  =      F    write LOCPOT, Hartree potential only
   LELF   =      F    write electronic localiz. function (ELF)
   LORBIT =      0    0 simple, 1 ext, 2 COOP (PROOUT)


 Dipole corrections
   LMONO  =      F    monopole corrections only (constant potential shift)
   LDIPOL =      F    correct potential (dipole corrections)
   IDIPOL =      0    1-x, 2-y, 3-z, 4-all directions 
   EPSILON=  1.0000000 bulk dielectric constant

 Exchange correlation treatment:
   GGA     =    --    GGA type
   LEXCH   =     8    internal setting for exchange type
   VOSKOWN=      0    Vosko Wilk Nusair interpolation
   LHFCALC =     F    Hartree Fock is set to
   LHFONE  =     F    Hartree Fock one center treatment
   AEXX    =    0.0000 exact exchange contribution

 Linear response parameters
   LEPSILON=     F    determine dielectric tensor
   LRPA    =     F    only Hartree local field effects (RPA)
   LNABLA  =     F    use nabla operator in PAW spheres
   LVEL    =     F    velocity operator in full k-point grid
   LINTERFAST=   F  fast interpolation
   KINTER  =     0    interpolate to denser k-point grid
   CSHIFT  =0.1000    complex shift for real part using Kramers Kronig
   OMEGAMAX=  -1.0    maximum frequency
   DEG_THRESHOLD= 0.2000000E-02 threshold for treating states as degnerate
   RTIME   =    0.100 relaxation time in fs

 Orbital magnetization related:
   ORBITALMAG=     F  switch on orbital magnetization
   LCHIMAG   =     F  perturbation theory with respect to B field
   DQ        =  0.001000  dq finite difference perturbation B field



--------------------------------------------------------------------------------------------------------


 quasi-Newton-method for relaxation of ions
 charge density and potential will be updated during run
 non-spin polarized calculation
 Variant of blocked Davidson
 Davidson routine will perform the subspace rotation
 perform sub-space diagonalisation
    after iterative eigenvector-optimisation
 modified Broyden-mixing scheme, WC =      100.0
 initial mixing is a Kerker type mixing with AMIX =  0.4000 and BMIX =      1.0000
 Hartree-type preconditioning will be used
 using additional bands           19
 real space projection scheme for non local part
 use partial core corrections
 calculate Harris-corrections to forces 
   (improved forces if not selfconsistent)
 use gradient corrections 
 use of overlap-Matrix (Vanderbilt PP)
 Methfessel and Paxton  Order N= 2 SIGMA  =   0.20


--------------------------------------------------------------------------------------------------------


  energy-cutoff  :      441.00
  volume of cell :      302.30
      direct lattice vectors                 reciprocal lattice vectors
    10.450668000  0.000000000  0.000000000     0.095687663  0.000000000  0.000000000
     0.000000000  6.087351000  0.000000000     0.000000000  0.164275068  0.000000000
     0.000000000  0.000000000  4.751955000     0.000000000  0.000000000  0.210439703

  length of vectors
    10.450668000  6.087351000  4.751955000     0.095687663  0.164275068  0.210439703


 
 k-points in units of 2pi/SCALE and weight: Automatic Mesh                          
   0.00000000  0.00000000  0.00000000       0.011
   0.03189589  0.00000000  0.00000000       0.022
   0.00000000  0.03285501  0.00000000       0.022
   0.03189589  0.03285501  0.00000000       0.022
  -0.03189589  0.03285501  0.00000000       0.022
   0.00000000  0.06571003  0.00000000       0.022
   0.03189589  0.06571003  0.00000000       0.022
  -0.03189589  0.06571003  0.00000000       0.022
   0.00000000  0.00000000  0.03507328       0.022
   0.03189589  0.00000000  0.03507328       0.022
  -0.03189589  0.00000000  0.03507328       0.022
   0.00000000  0.03285501  0.03507328       0.022
   0.03189589  0.03285501  0.03507328       0.022
  -0.03189589  0.03285501  0.03507328       0.022
   0.00000000  0.06571003  0.03507328       0.022
   0.03189589  0.06571003  0.03507328       0.022
  -0.03189589  0.06571003  0.03507328       0.022
   0.00000000 -0.06571003  0.03507328       0.022
   0.03189589 -0.06571003  0.03507328       0.022
  -0.03189589 -0.06571003  0.03507328       0.022
   0.00000000 -0.03285501  0.03507328       0.022
   0.03189589 -0.03285501  0.03507328       0.022
  -0.03189589 -0.03285501  0.03507328       0.022
   0.00000000  0.00000000  0.07014657       0.022
   0.03189589  0.00000000  0.07014657       0.022
  -0.03189589  0.00000000  0.07014657       0.022
   0.00000000  0.03285501  0.07014657       0.022
   0.03189589  0.03285501  0.07014657       0.022
  -0.03189589  0.03285501  0.07014657       0.022
   0.00000000  0.06571003  0.07014657       0.022
   0.03189589  0.06571003  0.07014657       0.022
  -0.03189589  0.06571003  0.07014657       0.022
   0.00000000 -0.06571003  0.07014657       0.022
   0.03189589 -0.06571003  0.07014657       0.022
  -0.03189589 -0.06571003  0.07014657       0.022
   0.00000000 -0.03285501  0.07014657       0.022
   0.03189589 -0.03285501  0.07014657       0.022
  -0.03189589 -0.03285501  0.07014657       0.022
   0.00000000  0.00000000  0.10521985       0.011
   0.03189589  0.00000000  0.10521985       0.022
   0.00000000  0.03285501  0.10521985       0.022
   0.03189589  0.03285501  0.10521985       0.022
  -0.03189589  0.03285501  0.10521985       0.022
   0.00000000  0.06571003  0.10521985       0.022
   0.03189589  0.06571003  0.10521985       0.022
  -0.03189589  0.06571003  0.10521985       0.022
 
 k-points in reciprocal lattice and weights: Automatic Mesh                          
   0.00000000  0.00000000  0.00000000       0.011
   0.33333333  0.00000000  0.00000000       0.022
   0.00000000  0.20000000  0.00000000       0.022
   0.33333333  0.20000000  0.00000000       0.022
  -0.33333333  0.20000000  0.00000000       0.022
   0.00000000  0.40000000  0.00000000       0.022
   0.33333333  0.40000000  0.00000000       0.022
  -0.33333333  0.40000000  0.00000000       0.022
   0.00000000  0.00000000  0.16666667       0.022
   0.33333333  0.00000000  0.16666667       0.022
  -0.33333333  0.00000000  0.16666667       0.022
   0.00000000  0.20000000  0.16666667       0.022
   0.33333333  0.20000000  0.16666667       0.022
  -0.33333333  0.20000000  0.16666667       0.022
   0.00000000  0.40000000  0.16666667       0.022
   0.33333333  0.40000000  0.16666667       0.022
  -0.33333333  0.40000000  0.16666667       0.022
   0.00000000 -0.40000000  0.16666667       0.022
   0.33333333 -0.40000000  0.16666667       0.022
  -0.33333333 -0.40000000  0.16666667       0.022
   0.00000000 -0.20000000  0.16666667       0.022
   0.33333333 -0.20000000  0.16666667       0.022
  -0.33333333 -0.20000000  0.16666667       0.022
   0.00000000  0.00000000  0.33333333       0.022
   0.33333333  0.00000000  0.33333333       0.022
  -0.33333333  0.00000000  0.33333333       0.022
   0.00000000  0.20000000  0.33333333       0.022
   0.33333333  0.20000000  0.33333333       0.022
  -0.33333333  0.20000000  0.33333333       0.022
   0.00000000  0.40000000  0.33333333       0.022
   0.33333333  0.40000000  0.33333333       0.022
  -0.33333333  0.40000000  0.33333333       0.022
   0.00000000 -0.40000000  0.33333333       0.022
   0.33333333 -0.40000000  0.33333333       0.022
  -0.33333333 -0.40000000  0.33333333       0.022
   0.00000000 -0.20000000  0.33333333       0.022
   0.33333333 -0.20000000  0.33333333       0.022
  -0.33333333 -0.20000000  0.33333333       0.022
   0.00000000  0.00000000  0.50000000       0.011
   0.33333333  0.00000000  0.50000000       0.022
   0.00000000  0.20000000  0.50000000       0.022
   0.33333333  0.20000000  0.50000000       0.022
  -0.33333333  0.20000000  0.50000000       0.022
   0.00000000  0.40000000  0.50000000       0.022
   0.33333333  0.40000000  0.50000000       0.022
  -0.33333333  0.40000000  0.50000000       0.022
 
 position of ions in fractional coordinates (direct lattice) 
   0.00000000  0.00000000  0.00000000
   0.50000000  0.50000000  0.50000000
   0.50000000  0.00000000  0.50000000
   0.09665500  0.25000000  0.74255700
   0.83438600  0.54718800  0.71384000
   0.83438600  0.95281300  0.71384000
   0.90334600  0.75000000  0.25744400
   0.04271700  0.75000000  0.70614300
   0.40334500  0.75000000  0.24255600
   0.16561400  0.04718800  0.28616100
   0.66561400  0.45281200  0.21383900
   0.33438600  0.54718800  0.78616100
   0.33438600  0.95281300  0.78616100
   0.95728300  0.25000000  0.29385800
   0.45728300  0.25000000  0.20614200
   0.54271700  0.75000000  0.79385900
   0.59665500  0.25000000  0.75744500
   0.66561400  0.04718800  0.21383900
   0.16561400  0.45281200  0.28616100
   0.09470200  0.25000000  0.41901800
   0.40529800  0.75000000  0.91901900
   0.59470200  0.25000000  0.08098000
   0.90529800  0.75000000  0.58098100
   0.78158500  0.25000000  0.52368000
   0.71841500  0.75000000  0.02368200
   0.28158500  0.25000000  0.97631900
   0.21841500  0.75000000  0.47631900
 
 position of ions in cartesian coordinates  (Angst):
   0.00000000  0.00000000  0.00000000
   5.22533400  3.04367550  2.37597750
   5.22533400  0.00000000  2.37597750
   1.01010932  1.52183775  3.52859745
   8.71989107  3.33092542  3.39213556
   8.71989107  5.80010717  3.39213556
   9.44056914  4.56551325  1.22336230
   0.44642118  4.56551325  3.35555976
   4.21522468  4.56551325  1.15261520
   1.73077693  0.28724992  1.35982419
   6.95611093  2.75642558  1.01615331
   3.49455707  3.33092542  3.73580169
   3.49455707  5.80010717  3.73580169
  10.00424682  1.52183775  1.39639999
   4.77891282  1.52183775  0.97957751
   5.67175518  4.56551325  3.77238224
   6.23544332  1.52183775  3.59934455
   6.95611093  0.28724992  1.01615331
   1.73077693  2.75642558  1.35982419
   0.98969916  1.52183775  1.99115468
   4.23563484  4.56551325  4.36713693
   6.21503316  1.52183775  0.38481332
   9.46096884  4.56551325  2.76079557
   8.16808535  1.52183775  2.48850379
   7.50791665  4.56551325  0.11253580
   2.94275135  1.52183775  4.63942395
   2.28258265  4.56551325  2.26344645
 


--------------------------------------------------------------------------------------------------------


 k-point  1 :   0.0000 0.0000 0.0000  plane waves:    6383
 k-point  2 :   0.3333 0.0000 0.0000  plane waves:    6358
 k-point  3 :   0.0000 0.2000 0.0000  plane waves:    6353
 k-point  4 :   0.3333 0.2000 0.0000  plane waves:    6357
 k-point  5 :  -0.3333 0.2000 0.0000  plane waves:    6357
 k-point  6 :   0.0000 0.4000 0.0000  plane waves:    6363
 k-point  7 :   0.3333 0.4000 0.0000  plane waves:    6345
 k-point  8 :  -0.3333 0.4000 0.0000  plane waves:    6345
 k-point  9 :   0.0000 0.0000 0.1667  plane waves:    6350
 k-point 10 :   0.3333 0.0000 0.1667  plane waves:    6358
 k-point 11 :  -0.3333 0.0000 0.1667  plane waves:    6358
 k-point 12 :   0.0000 0.2000 0.1667  plane waves:    6352
 k-point 13 :   0.3333 0.2000 0.1667  plane waves:    6350
 k-point 14 :  -0.3333 0.2000 0.1667  plane waves:    6350
 k-point 15 :   0.0000 0.4000 0.1667  plane waves:    6341
 k-point 16 :   0.3333 0.4000 0.1667  plane waves:    6345
 k-point 17 :  -0.3333 0.4000 0.1667  plane waves:    6345
 k-point 18 :   0.0000-0.4000 0.1667  plane waves:    6341
 k-point 19 :   0.3333-0.4000 0.1667  plane waves:    6345
 k-point 20 :  -0.3333-0.4000 0.1667  plane waves:    6345
 k-point 21 :   0.0000-0.2000 0.1667  plane waves:    6352
 k-point 22 :   0.3333-0.2000 0.1667  plane waves:    6350
 k-point 23 :  -0.3333-0.2000 0.1667  plane waves:    6350
 k-point 24 :   0.0000 0.0000 0.3333  plane waves:    6354
 k-point 25 :   0.3333 0.0000 0.3333  plane waves:    6370
 k-point 26 :  -0.3333 0.0000 0.3333  plane waves:    6370
 k-point 27 :   0.0000 0.2000 0.3333  plane waves:    6373
 k-point 28 :   0.3333 0.2000 0.3333  plane waves:    6365
 k-point 29 :  -0.3333 0.2000 0.3333  plane waves:    6365
 k-point 30 :   0.0000 0.4000 0.3333  plane waves:    6345
 k-point 31 :   0.3333 0.4000 0.3333  plane waves:    6357
 k-point 32 :  -0.3333 0.4000 0.3333  plane waves:    6357
 k-point 33 :   0.0000-0.4000 0.3333  plane waves:    6345
 k-point 34 :   0.3333-0.4000 0.3333  plane waves:    6357
 k-point 35 :  -0.3333-0.4000 0.3333  plane waves:    6357
 k-point 36 :   0.0000-0.2000 0.3333  plane waves:    6373
 k-point 37 :   0.3333-0.2000 0.3333  plane waves:    6365
 k-point 38 :  -0.3333-0.2000 0.3333  plane waves:    6365
 k-point 39 :   0.0000 0.0000 0.5000  plane waves:    6372
 k-point 40 :   0.3333 0.0000 0.5000  plane waves:    6374
 k-point 41 :   0.0000 0.2000 0.5000  plane waves:    6368
 k-point 42 :   0.3333 0.2000 0.5000  plane waves:    6380
 k-point 43 :  -0.3333 0.2000 0.5000  plane waves:    6380
 k-point 44 :   0.0000 0.4000 0.5000  plane waves:    6344
 k-point 45 :   0.3333 0.4000 0.5000  plane waves:    6368
 k-point 46 :  -0.3333 0.4000 0.5000  plane waves:    6368

 maximum and minimum number of plane-waves per node :       452      384

 maximum number of plane-waves:      6383
 maximum index in each direction: 
   IXMAX=   18   IYMAX=   10   IZMAX=    8
   IXMIN=  -18   IYMIN=  -10   IZMIN=   -8

 WARNING: aliasing errors must be expected set NGX to  74 to avoid them
 WARNING: aliasing errors must be expected set NGY to  42 to avoid them
 WARNING: aliasing errors must be expected set NGZ to  34 to avoid them
 aliasing errors are usually negligible using standard VASP settings
 and one can safely disregard these warnings

 real space projection operators:
  total allocation   :       2254.38 KBytes
  max/ min on nodes  :        161.88        134.41


 parallel 3D FFT for wavefunctions:
    minimum data exchange during FFTs selected (reduces bandwidth)
 parallel 3D FFT for charge:
    minimum data exchange during FFTs selected (reduces bandwidth)


 total amount of memory used by VASP on root node    66063. kBytes
========================================================================

   base      :      30000. kBytes
   nonlr-proj:        921. kBytes
   fftplans  :        927. kBytes
   grid      :       1951. kBytes
   one-center:         31. kBytes
   wavefun   :      32233. kBytes
 
     INWAV:  cpu time    0.0000: real time    0.0001
 Broyden mixing: mesh for mixing (old mesh)
   NGX = 35   NGY = 21   NGZ = 17
  (NGX  =108   NGY  = 64   NGZ  = 48)
  gives a total of  12495 points

 initial charge density was supplied:
 charge density of overlapping atoms calculated
 number of electron     151.0000000 magnetization 
 keeping initial charge density in first step


--------------------------------------------------------------------------------------------------------


 Maximum index for non-local projection operator          162
 Maximum index for augmentation-charges          608 (set IRDMAX)


--------------------------------------------------------------------------------------------------------


 First call to EWALD:  gamma=   0.264
 Maximum number of real-space cells 2x 3x 4
 Maximum number of reciprocal cells 4x 3x 2

 FEWALD executed in parallel
    FEWALD:  cpu time    0.0023: real time    0.0023


----------------------------------------- Iteration    1(   1)  ---------------------------------------


    POTLOK:  cpu time    0.0150: real time    0.0150
    SETDIJ:  cpu time    0.0038: real time    0.0038
     EDDAV:  cpu time    4.6074: real time    4.6061
       DOS:  cpu time    0.0155: real time    0.0155
    --------------------------------------------
      LOOP:  cpu time    4.6436: real time    4.7382

 eigenvalue-minimisations  :  8740
 total energy-change (2. order) : 0.1691714E+04  (-0.6200920E+04)
 number of electron     151.0000000 magnetization 
 augmentation part      151.0000000 magnetization 

 Free energy of the ion-electron system (eV)
  ---------------------------------------------------
  alpha Z        PSCENC =       401.59370410
  Ewald energy   TEWEN  =     -7268.20414406
  -Hartree energ DENC   =     -2983.05901001
  -exchange      EXHF   =         0.00000000
  -V(xc)+E(xc)   XCENC  =       463.19708144
  PAW double counting   =      6060.85387329    -6071.66291187
  entropy T*S    EENTRO =         0.00079739
  eigenvalues    EBANDS =      1073.72925384
  atomic energy  EATOM  =     10015.26539877
  Solvation  Ediel_sol  =         0.00000000
  ---------------------------------------------------
  free energy    TOTEN  =      1691.71404291 eV

  energy without entropy =     1691.71324552  energy(sigma->0) =     1691.71384356


--------------------------------------------------------------------------------------------------------




----------------------------------------- Iteration    1(   2)  ---------------------------------------


     EDDAV:  cpu time    4.8403: real time    4.8379
       DOS:  cpu time    0.0185: real time    0.0185
    --------------------------------------------
      LOOP:  cpu time    4.8593: real time    4.9446

 eigenvalue-minimisations  :  9351
 total energy-change (2. order) :-0.1617368E+04  (-0.1487077E+04)
 number of electron     151.0000000 magnetization 
 augmentation part      151.0000000 magnetization 

 Free energy of the ion-electron system (eV)
  ---------------------------------------------------
  alpha Z        PSCENC =       401.59370410
  Ewald energy   TEWEN  =     -7268.20414406
  -Hartree energ DENC   =     -2983.05901001
  -exchange      EXHF   =         0.00000000
  -V(xc)+E(xc)   XCENC  =       463.19708144
  PAW double counting   =      6060.85387329    -6071.66291187
  entropy T*S    EENTRO =        -0.00222984
  eigenvalues    EBANDS =      -543.63558500
  atomic energy  EATOM  =     10015.26539877
  Solvation  Ediel_sol  =         0.00000000
  ---------------------------------------------------
  free energy    TOTEN  =        74.34617684 eV

  energy without entropy =       74.34840667  energy(sigma->0) =       74.34673430


--------------------------------------------------------------------------------------------------------




----------------------------------------- Iteration    1(   3)  ---------------------------------------


     EDDAV:  cpu time    5.1185: real time    5.1159
       DOS:  cpu time    0.0191: real time    0.0191
    --------------------------------------------
      LOOP:  cpu time    5.1382: real time    5.2186

 eigenvalue-minimisations  : 10027
 total energy-change (2. order) :-0.2724287E+03  (-0.2627750E+03)
 number of electron     151.0000000 magnetization 
 augmentation part      151.0000000 magnetization 

 Free energy of the ion-electron system (eV)
  ---------------------------------------------------
  alpha Z        PSCENC =       401.59370410
  Ewald energy   TEWEN  =     -7268.20414406
  -Hartree energ DENC   =     -2983.05901001
  -exchange      EXHF   =         0.00000000
  -V(xc)+E(xc)   XCENC  =       463.19708144
  PAW double counting   =      6060.85387329    -6071.66291187
  entropy T*S    EENTRO =         0.04281002
  eigenvalues    EBANDS =      -816.10928505
  atomic energy  EATOM  =     10015.26539877
  Solvation  Ediel_sol  =         0.00000000
  ---------------------------------------------------
  free energy    TOTEN  =      -198.08248337 eV

  energy without entropy =     -198.12529338  energy(sigma->0) =     -198.09318587


--------------------------------------------------------------------------------------------------------




----------------------------------------- Iteration    1(   4)  ---------------------------------------


     EDDAV:  cpu time    5.8166: real time    5.8137
       DOS:  cpu time    0.0205: real time    0.0205
    --------------------------------------------
      LOOP:  cpu time    5.8378: real time    5.9361

 eigenvalue-minimisations  : 11776
 total energy-change (2. order) :-0.1588149E+02  (-0.1545771E+02)
 number of electron     151.0000000 magnetization 
 augmentation part      151.0000000 magnetization 

 Free energy of the ion-electron system (eV)
  ---------------------------------------------------
  alpha Z        PSCENC =       401.59370410
  Ewald energy   TEWEN  =     -7268.20414406
  -Hartree energ DENC   =     -2983.05901001
  -exchange      EXHF   =         0.00000000
  -V(xc)+E(xc)   XCENC  =       463.19708144
  PAW double counting   =      6060.85387329    -6071.66291187
  entropy T*S    EENTRO =         0.00171609
  eigenvalues    EBANDS =      -831.94968124
  atomic energy  EATOM  =     10015.26539877
  Solvation  Ediel_sol  =         0.00000000
  ---------------------------------------------------
  free energy    TOTEN  =      -213.96397348 eV

  energy without entropy =     -213.96568957  energy(sigma->0) =     -213.96440250


--------------------------------------------------------------------------------------------------------




----------------------------------------- Iteration    1(   5)  ---------------------------------------


     EDDAV:  cpu time    6.2091: real time    6.2063
       DOS:  cpu time    0.0206: real time    0.0208
    CHARGE:  cpu time    0.2909: real time    0.2907
    MIXING:  cpu time    0.0008: real time    0.0008
    --------------------------------------------
      LOOP:  cpu time    6.5225: real time    6.6118

 eigenvalue-minimisations  : 12776
 total energy-change (2. order) :-0.6982064E+00  (-0.6944120E+00)
 number of electron     150.9999898 magnetization 
 augmentation part       24.9246917 magnetization 

 Broyden mixing:
  rms(total) = 0.35790E+01    rms(broyden)= 0.35746E+01
  rms(prec ) = 0.47147E+01
  weight for this iteration     100.00

 Free energy of the ion-electron system (eV)
  ---------------------------------------------------
  alpha Z        PSCENC =       401.59370410
  Ewald energy   TEWEN  =     -7268.20414406
  -Hartree energ DENC   =     -2983.05901001
  -exchange      EXHF   =         0.00000000
  -V(xc)+E(xc)   XCENC  =       463.19708144
  PAW double counting   =      6060.85387329    -6071.66291187
  entropy T*S    EENTRO =         0.00192457
  eigenvalues    EBANDS =      -832.64809609
  atomic energy  EATOM  =     10015.26539877
  Solvation  Ediel_sol  =         0.00000000
  ---------------------------------------------------
  free energy    TOTEN  =      -214.66217985 eV

  energy without entropy =     -214.66410442  energy(sigma->0) =     -214.66266099


--------------------------------------------------------------------------------------------------------




----------------------------------------- Iteration    1(   6)  ---------------------------------------


    POTLOK:  cpu time    0.0142: real time    0.0142
    SETDIJ:  cpu time    0.0039: real time    0.0038
     EDDAV:  cpu time    5.8549: real time    5.8520
       DOS:  cpu time    0.0210: real time    0.0210
    CHARGE:  cpu time    0.2627: real time    0.2627
    MIXING:  cpu time    0.0007: real time    0.0008
    --------------------------------------------
      LOOP:  cpu time    6.1581: real time    6.2436

 eigenvalue-minimisations  : 11896
 total energy-change (2. order) : 0.1686722E+02  (-0.2107050E+02)
 number of electron     150.9999883 magnetization 
 augmentation part       30.8581848 magnetization 

 Broyden mixing:
  rms(total) = 0.45364E+01    rms(broyden)= 0.45340E+01
  rms(prec ) = 0.62634E+01
  weight for this iteration     100.00

 eigenvalues of (default mixing * dielectric matrix)
  average eigenvalue GAMMA=   0.4326
  0.4326

 Free energy of the ion-electron system (eV)
  ---------------------------------------------------
  alpha Z        PSCENC =       401.59370410
  Ewald energy   TEWEN  =     -7268.20414406
  -Hartree energ DENC   =     -3122.61811881
  -exchange      EXHF   =         0.00000000
  -V(xc)+E(xc)   XCENC  =       476.54780652
  PAW double counting   =      6562.81913050    -6562.42028572
  entropy T*S    EENTRO =        -0.00766313
  eigenvalues    EBANDS =      -700.77078882
  atomic energy  EATOM  =     10015.26539877
  Solvation  Ediel_sol  =         0.00000000
  ---------------------------------------------------
  free energy    TOTEN  =      -197.79496064 eV

  energy without entropy =     -197.78729751  energy(sigma->0) =     -197.79304486


--------------------------------------------------------------------------------------------------------




----------------------------------------- Iteration    1(   7)  ---------------------------------------


    POTLOK:  cpu time    0.0142: real time    0.0142
    SETDIJ:  cpu time    0.0039: real time    0.0039
     EDDAV:  cpu time    6.1557: real time    6.1526
       DOS:  cpu time    0.0215: real time    0.0215
    CHARGE:  cpu time    0.2963: real time    0.2961
    MIXING:  cpu time    0.0007: real time    0.0007
    --------------------------------------------
      LOOP:  cpu time    6.4928: real time    6.5765

 eigenvalue-minimisations  : 12624
 total energy-change (2. order) : 0.6352438E+01  (-0.1499424E+02)
 number of electron     150.9999846 magnetization 
 augmentation part       24.2841657 magnetization 

 Broyden mixing:
  rms(total) = 0.51357E+01    rms(broyden)= 0.51348E+01
  rms(prec ) = 0.76786E+01
  weight for this iteration     100.00

 eigenvalues of (default mixing * dielectric matrix)
  average eigenvalue GAMMA=   0.2887
  0.4636  0.1139

 Free energy of the ion-electron system (eV)
  ---------------------------------------------------
  alpha Z        PSCENC =       401.59370410
  Ewald energy   TEWEN  =     -7268.20414406
  -Hartree energ DENC   =     -3144.77402098
  -exchange      EXHF   =         0.00000000
  -V(xc)+E(xc)   XCENC  =       476.06652175
  PAW double counting   =      6698.52046248    -6714.62161341
  entropy T*S    EENTRO =        -0.04977861
  eigenvalues    EBANDS =      -655.23905223
  atomic energy  EATOM  =     10015.26539877
  Solvation  Ediel_sol  =         0.00000000
  ---------------------------------------------------
  free energy    TOTEN  =      -191.44252219 eV

  energy without entropy =     -191.39274358  energy(sigma->0) =     -191.43007754


--------------------------------------------------------------------------------------------------------




----------------------------------------- Iteration    1(   8)  ---------------------------------------


    POTLOK:  cpu time    0.0139: real time    0.0139
    SETDIJ:  cpu time    0.0038: real time    0.0038
     EDDAV:  cpu time    6.3557: real time    6.3525
       DOS:  cpu time    0.0205: real time    0.0205
    CHARGE:  cpu time    0.2939: real time    0.2939
    MIXING:  cpu time    0.0007: real time    0.0007
    --------------------------------------------
      LOOP:  cpu time    6.6891: real time    6.7763

 eigenvalue-minimisations  : 13168
 total energy-change (2. order) :-0.1039922E+02  (-0.1257119E+02)
 number of electron     150.9999838 magnetization 
 augmentation part       24.5913885 magnetization 

 Broyden mixing:
  rms(total) = 0.58037E+01    rms(broyden)= 0.58033E+01
  rms(prec ) = 0.87645E+01
  weight for this iteration     100.00

 eigenvalues of (default mixing * dielectric matrix)
  average eigenvalue GAMMA=   0.4146
  0.8681  0.3313  0.0442

 Free energy of the ion-electron system (eV)
  ---------------------------------------------------
  alpha Z        PSCENC =       401.59370410
  Ewald energy   TEWEN  =     -7268.20414406
  -Hartree energ DENC   =     -3145.00901664
  -exchange      EXHF   =         0.00000000
  -V(xc)+E(xc)   XCENC  =       476.12291046
  PAW double counting   =      6712.24037796    -6728.33760086
  entropy T*S    EENTRO =        -0.09500776
  eigenvalues    EBANDS =      -665.41836519
  atomic energy  EATOM  =     10015.26539877
  Solvation  Ediel_sol  =         0.00000000
  ---------------------------------------------------
  free energy    TOTEN  =      -201.84174322 eV

  energy without entropy =     -201.74673546  energy(sigma->0) =     -201.81799128


--------------------------------------------------------------------------------------------------------




----------------------------------------- Iteration    1(   9)  ---------------------------------------


    POTLOK:  cpu time    0.0139: real time    0.0139
    SETDIJ:  cpu time    0.0038: real time    0.0038
     EDDAV:  cpu time    6.2010: real time    6.1979
       DOS:  cpu time    0.0217: real time    0.0216
    CHARGE:  cpu time    0.3041: real time    0.3039
    MIXING:  cpu time    0.0008: real time    0.0008
    --------------------------------------------
      LOOP:  cpu time    6.5459: real time    6.6169

 eigenvalue-minimisations  : 12824
 total energy-change (2. order) : 0.1506137E+02  (-0.3016198E+01)
 number of electron     150.9999926 magnetization 
 augmentation part       24.7512355 magnetization 

 Broyden mixing:
  rms(total) = 0.13919E+01    rms(broyden)= 0.13866E+01
  rms(prec ) = 0.18880E+01
  weight for this iteration     100.00

 eigenvalues of (default mixing * dielectric matrix)
  average eigenvalue GAMMA=   0.4288
  1.0081  0.3312  0.3312  0.0448

 Free energy of the ion-electron system (eV)
  ---------------------------------------------------
  alpha Z        PSCENC =       401.59370410
  Ewald energy   TEWEN  =     -7268.20414406
  -Hartree energ DENC   =     -3151.79571719
  -exchange      EXHF   =         0.00000000
  -V(xc)+E(xc)   XCENC  =       477.16649684
  PAW double counting   =      6804.93504080    -6820.17581740
  entropy T*S    EENTRO =         0.01112038
  eigenvalues    EBANDS =      -645.57645420
  atomic energy  EATOM  =     10015.26539877
  Solvation  Ediel_sol  =         0.00000000
  ---------------------------------------------------
  free energy    TOTEN  =      -186.78037197 eV

  energy without entropy =     -186.79149235  energy(sigma->0) =     -186.78315207


--------------------------------------------------------------------------------------------------------




----------------------------------------- Iteration    1(  10)  ---------------------------------------


    POTLOK:  cpu time    0.0138: real time    0.0143
    SETDIJ:  cpu time    0.0038: real time    0.0038
     EDDAV:  cpu time    6.2594: real time    6.2571
       DOS:  cpu time    0.0220: real time    0.0220
    CHARGE:  cpu time    0.2899: real time    0.2897
    MIXING:  cpu time    0.0008: real time    0.0008
    --------------------------------------------
      LOOP:  cpu time    6.5918: real time    6.6658

 eigenvalue-minimisations  : 12928
 total energy-change (2. order) : 0.2028183E+01  (-0.1614930E+00)
 number of electron     150.9999915 magnetization 
 augmentation part       24.9182146 magnetization 

 Broyden mixing:
  rms(total) = 0.13707E+01    rms(broyden)= 0.13705E+01
  rms(prec ) = 0.20139E+01
  weight for this iteration     100.00

 eigenvalues of (default mixing * dielectric matrix)
  average eigenvalue GAMMA=   0.5711
  0.8925  0.8925  0.6632  0.3628  0.0447

 Free energy of the ion-electron system (eV)
  ---------------------------------------------------
  alpha Z        PSCENC =       401.59370410
  Ewald energy   TEWEN  =     -7268.20414406
  -Hartree energ DENC   =     -3152.22358805
  -exchange      EXHF   =         0.00000000
  -V(xc)+E(xc)   XCENC  =       477.51888416
  PAW double counting   =      6845.22068580    -6861.41007028
  entropy T*S    EENTRO =         0.01492939
  eigenvalues    EBANDS =      -642.52798913
  atomic energy  EATOM  =     10015.26539877
  Solvation  Ediel_sol  =         0.00000000
  ---------------------------------------------------
  free energy    TOTEN  =      -184.75218930 eV

  energy without entropy =     -184.76711869  energy(sigma->0) =     -184.75592165


--------------------------------------------------------------------------------------------------------




----------------------------------------- Iteration    1(  11)  ---------------------------------------


    POTLOK:  cpu time    0.0142: real time    0.0143
    SETDIJ:  cpu time    0.0038: real time    0.0038
     EDDAV:  cpu time    7.1345: real time    7.1308
       DOS:  cpu time    0.0215: real time    0.0215
    CHARGE:  cpu time    0.2858: real time    0.2857
    MIXING:  cpu time    0.0008: real time    0.0008
    --------------------------------------------
      LOOP:  cpu time    7.4611: real time    7.5292

 eigenvalue-minimisations  : 14944
 total energy-change (2. order) : 0.5848263E+00  (-0.2913288E+00)
 number of electron     150.9999919 magnetization 
 augmentation part       25.2555623 magnetization 

 Broyden mixing:
  rms(total) = 0.10754E+01    rms(broyden)= 0.10750E+01
  rms(prec ) = 0.14749E+01
  weight for this iteration     100.00

 eigenvalues of (default mixing * dielectric matrix)
  average eigenvalue GAMMA=   0.6388
  1.4602  0.9422  0.6845  0.0447  0.3505  0.3505

 Free energy of the ion-electron system (eV)
  ---------------------------------------------------
  alpha Z        PSCENC =       401.59370410
  Ewald energy   TEWEN  =     -7268.20414406
  -Hartree energ DENC   =     -3147.40281036
  -exchange      EXHF   =         0.00000000
  -V(xc)+E(xc)   XCENC  =       477.64435557
  PAW double counting   =      6890.81890647    -6905.37466680
  entropy T*S    EENTRO =         0.02257242
  eigenvalues    EBANDS =      -648.53067913
  atomic energy  EATOM  =     10015.26539877
  Solvation  Ediel_sol  =         0.00000000
  ---------------------------------------------------
  free energy    TOTEN  =      -184.16736302 eV

  energy without entropy =     -184.18993544  energy(sigma->0) =     -184.17300612


--------------------------------------------------------------------------------------------------------




----------------------------------------- Iteration    1(  12)  ---------------------------------------


    POTLOK:  cpu time    0.0114: real time    0.0140
    SETDIJ:  cpu time    0.0038: real time    0.0038
     EDDAV:  cpu time    6.2659: real time    6.2626
       DOS:  cpu time    0.0211: real time    0.0211
    CHARGE:  cpu time    0.2713: real time    0.2711
    MIXING:  cpu time    0.0008: real time    0.0008
    --------------------------------------------
      LOOP:  cpu time    6.5775: real time    6.6516

 eigenvalue-minimisations  : 12880
 total energy-change (2. order) : 0.3328362E+00  (-0.9256900E-01)
 number of electron     150.9999918 magnetization 
 augmentation part       25.4947862 magnetization 

 Broyden mixing:
  rms(total) = 0.81440E+00    rms(broyden)= 0.81432E+00
  rms(prec ) = 0.11532E+01
  weight for this iteration     100.00

 eigenvalues of (default mixing * dielectric matrix)
  average eigenvalue GAMMA=   0.7605
  2.2355  0.9411  0.6236  0.6236  0.4600  0.3952  0.0447

 Free energy of the ion-electron system (eV)
  ---------------------------------------------------
  alpha Z        PSCENC =       401.59370410
  Ewald energy   TEWEN  =     -7268.20414406
  -Hartree energ DENC   =     -3149.23552423
  -exchange      EXHF   =         0.00000000
  -V(xc)+E(xc)   XCENC  =       478.14419870
  PAW double counting   =      6938.26196458    -6952.96095973
  entropy T*S    EENTRO =         0.03164999
  eigenvalues    EBANDS =      -646.73081496
  atomic energy  EATOM  =     10015.26539877
  Solvation  Ediel_sol  =         0.00000000
  ---------------------------------------------------
  free energy    TOTEN  =      -183.83452683 eV

  energy without entropy =     -183.86617682  energy(sigma->0) =     -183.84243933


--------------------------------------------------------------------------------------------------------




----------------------------------------- Iteration    1(  13)  ---------------------------------------


    POTLOK:  cpu time    0.0139: real time    0.0139
    SETDIJ:  cpu time    0.0038: real time    0.0038
     EDDAV:  cpu time    6.4776: real time    6.4745
       DOS:  cpu time    0.0208: real time    0.0209
    CHARGE:  cpu time    0.2705: real time    0.2703
    MIXING:  cpu time    0.0009: real time    0.0009
    --------------------------------------------
      LOOP:  cpu time    6.7881: real time    6.8839

 eigenvalue-minimisations  : 13400
 total energy-change (2. order) : 0.5663815E-01  (-0.3359825E-01)
 number of electron     150.9999917 magnetization 
 augmentation part       25.6013589 magnetization 

 Broyden mixing:
  rms(total) = 0.47228E+00    rms(broyden)= 0.47213E+00
  rms(prec ) = 0.64799E+00
  weight for this iteration     100.00

 eigenvalues of (default mixing * dielectric matrix)
  average eigenvalue GAMMA=   0.7697
  2.3435  1.0317  0.6868  0.6868  0.0447  0.6111  0.3765  0.3765

 Free energy of the ion-electron system (eV)
  ---------------------------------------------------
  alpha Z        PSCENC =       401.59370410
  Ewald energy   TEWEN  =     -7268.20414406
  -Hartree energ DENC   =     -3151.37534398
  -exchange      EXHF   =         0.00000000
  -V(xc)+E(xc)   XCENC  =       478.59184835
  PAW double counting   =      6977.89104558    -6993.03309444
  entropy T*S    EENTRO =         0.02711513
  eigenvalues    EBANDS =      -644.53441811
  atomic energy  EATOM  =     10015.26539877
  Solvation  Ediel_sol  =         0.00000000
  ---------------------------------------------------
  free energy    TOTEN  =      -183.77788868 eV

  energy without entropy =     -183.80500380  energy(sigma->0) =     -183.78466746


--------------------------------------------------------------------------------------------------------




----------------------------------------- Iteration    1(  14)  ---------------------------------------


    POTLOK:  cpu time    0.0140: real time    0.0140
    SETDIJ:  cpu time    0.0038: real time    0.0038
     EDDAV:  cpu time    6.2403: real time    6.2373
       DOS:  cpu time    0.0211: real time    0.0211
    CHARGE:  cpu time    0.2708: real time    0.2705
    MIXING:  cpu time    0.0010: real time    0.0010
    --------------------------------------------
      LOOP:  cpu time    6.5515: real time    6.6451

 eigenvalue-minimisations  : 12800
 total energy-change (2. order) : 0.1247222E-01  (-0.6533759E-02)
 number of electron     150.9999919 magnetization 
 augmentation part       25.5738137 magnetization 

 Broyden mixing:
  rms(total) = 0.37340E+00    rms(broyden)= 0.37339E+00
  rms(prec ) = 0.52155E+00
  weight for this iteration     100.00

 eigenvalues of (default mixing * dielectric matrix)
  average eigenvalue GAMMA=   0.8591
  2.4534  1.4258  0.9437  0.8081  0.8081  0.0447  0.3956  0.4263  0.4263

 Free energy of the ion-electron system (eV)
  ---------------------------------------------------
  alpha Z        PSCENC =       401.59370410
  Ewald energy   TEWEN  =     -7268.20414406
  -Hartree energ DENC   =     -3151.52677095
  -exchange      EXHF   =         0.00000000
  -V(xc)+E(xc)   XCENC  =       478.66502210
  PAW double counting   =      6984.29588215    -6999.83381982
  entropy T*S    EENTRO =         0.02572319
  eigenvalues    EBANDS =      -644.04641196
  atomic energy  EATOM  =     10015.26539877
  Solvation  Ediel_sol  =         0.00000000
  ---------------------------------------------------
  free energy    TOTEN  =      -183.76541646 eV

  energy without entropy =     -183.79113965  energy(sigma->0) =     -183.77184726


--------------------------------------------------------------------------------------------------------




----------------------------------------- Iteration    1(  15)  ---------------------------------------


    POTLOK:  cpu time    0.0143: real time    0.0143
    SETDIJ:  cpu time    0.0039: real time    0.0039
     EDDAV:  cpu time    6.2210: real time    6.2178
       DOS:  cpu time    0.0205: real time    0.0205
    CHARGE:  cpu time    0.2722: real time    0.2722
    MIXING:  cpu time    0.0010: real time    0.0010
    --------------------------------------------
      LOOP:  cpu time    6.5334: real time    6.6560

 eigenvalue-minimisations  : 12760
 total energy-change (2. order) :-0.1413823E-01  (-0.7744770E-02)
 number of electron     150.9999918 magnetization 
 augmentation part       25.5206420 magnetization 

 Broyden mixing:
  rms(total) = 0.20478E+00    rms(broyden)= 0.20469E+00
  rms(prec ) = 0.26527E+00
  weight for this iteration     100.00

 eigenvalues of (default mixing * dielectric matrix)
  average eigenvalue GAMMA=   0.8969
  2.6276  1.3535  1.3535  0.8887  0.8887  0.0447  0.5217  0.5217  0.3846  0.3846

 Free energy of the ion-electron system (eV)
  ---------------------------------------------------
  alpha Z        PSCENC =       401.59370410
  Ewald energy   TEWEN  =     -7268.20414406
  -Hartree energ DENC   =     -3151.71929418
  -exchange      EXHF   =         0.00000000
  -V(xc)+E(xc)   XCENC  =       478.75055804
  PAW double counting   =      6988.22606595    -7004.13123481
  entropy T*S    EENTRO =         0.02276035
  eigenvalues    EBANDS =      -643.58336885
  atomic energy  EATOM  =     10015.26539877
  Solvation  Ediel_sol  =         0.00000000
  ---------------------------------------------------
  free energy    TOTEN  =      -183.77955469 eV

  energy without entropy =     -183.80231503  energy(sigma->0) =     -183.78524477


--------------------------------------------------------------------------------------------------------




----------------------------------------- Iteration    1(  16)  ---------------------------------------


    POTLOK:  cpu time    0.0140: real time    0.0140
    SETDIJ:  cpu time    0.0038: real time    0.0038
     EDDAV:  cpu time    5.8687: real time    5.8657
       DOS:  cpu time    0.0205: real time    0.0205
    CHARGE:  cpu time    0.2695: real time    0.2695
    MIXING:  cpu time    0.0011: real time    0.0011
    --------------------------------------------
      LOOP:  cpu time    6.1782: real time    6.2705

 eigenvalue-minimisations  : 11888
 total energy-change (2. order) :-0.9385034E-02  (-0.9581815E-03)
 number of electron     150.9999919 magnetization 
 augmentation part       25.5210702 magnetization 

 Broyden mixing:
  rms(total) = 0.18974E+00    rms(broyden)= 0.18973E+00
  rms(prec ) = 0.25843E+00
  weight for this iteration     100.00

 eigenvalues of (default mixing * dielectric matrix)
  average eigenvalue GAMMA=   0.9572
  2.4504  2.3209  1.2755  0.0447  0.9111  0.9111  0.6881  0.6881  0.3975  0.3975
  0.4446

 Free energy of the ion-electron system (eV)
  ---------------------------------------------------
  alpha Z        PSCENC =       401.59370410
  Ewald energy   TEWEN  =     -7268.20414406
  -Hartree energ DENC   =     -3152.04261636
  -exchange      EXHF   =         0.00000000
  -V(xc)+E(xc)   XCENC  =       478.82896610
  PAW double counting   =      6989.15320888    -7005.11777962
  entropy T*S    EENTRO =         0.02388631
  eigenvalues    EBANDS =      -643.28956385
  atomic energy  EATOM  =     10015.26539877
  Solvation  Ediel_sol  =         0.00000000
  ---------------------------------------------------
  free energy    TOTEN  =      -183.78893972 eV

  energy without entropy =     -183.81282603  energy(sigma->0) =     -183.79491130


--------------------------------------------------------------------------------------------------------




----------------------------------------- Iteration    1(  17)  ---------------------------------------


    POTLOK:  cpu time    0.0135: real time    0.0141
    SETDIJ:  cpu time    0.0038: real time    0.0038
     EDDAV:  cpu time    6.1436: real time    6.1495
       DOS:  cpu time    0.0209: real time    0.0211
    CHARGE:  cpu time    0.2697: real time    0.2695
    MIXING:  cpu time    0.0012: real time    0.0012
    --------------------------------------------
      LOOP:  cpu time    6.4538: real time    6.5519

 eigenvalue-minimisations  : 12624
 total energy-change (2. order) :-0.5609452E-02  (-0.8861870E-03)
 number of electron     150.9999918 magnetization 
 augmentation part       25.5241168 magnetization 

 Broyden mixing:
  rms(total) = 0.12995E+00    rms(broyden)= 0.12993E+00
  rms(prec ) = 0.17576E+00
  weight for this iteration     100.00

 eigenvalues of (default mixing * dielectric matrix)
  average eigenvalue GAMMA=   1.0034
  3.0995  2.6256  0.0447  1.1965  0.9485  0.9485  0.7350  0.7350  0.4658  0.4658
  0.3884  0.3884

 Free energy of the ion-electron system (eV)
  ---------------------------------------------------
  alpha Z        PSCENC =       401.59370410
  Ewald energy   TEWEN  =     -7268.20414406
  -Hartree energ DENC   =     -3152.38179644
  -exchange      EXHF   =         0.00000000
  -V(xc)+E(xc)   XCENC  =       478.89839896
  PAW double counting   =      6988.56936112    -7004.46545564
  entropy T*S    EENTRO =         0.01976674
  eigenvalues    EBANDS =      -643.08978272
  atomic energy  EATOM  =     10015.26539877
  Solvation  Ediel_sol  =         0.00000000
  ---------------------------------------------------
  free energy    TOTEN  =      -183.79454917 eV

  energy without entropy =     -183.81431592  energy(sigma->0) =     -183.79949086


--------------------------------------------------------------------------------------------------------




----------------------------------------- Iteration    1(  18)  ---------------------------------------


    POTLOK:  cpu time    0.0133: real time    0.0139
    SETDIJ:  cpu time    0.0038: real time    0.0038
     EDDAV:  cpu time    6.3545: real time    6.3514
       DOS:  cpu time    0.0209: real time    0.0208
    CHARGE:  cpu time    0.2695: real time    0.2693
    MIXING:  cpu time    0.0012: real time    0.0012
    --------------------------------------------
      LOOP:  cpu time    6.6643: real time    6.7680

 eigenvalue-minimisations  : 13136
 total energy-change (2. order) :-0.3120026E-02  (-0.1513660E-03)
 number of electron     150.9999918 magnetization 
 augmentation part       25.5296523 magnetization 

 Broyden mixing:
  rms(total) = 0.96819E-01    rms(broyden)= 0.96816E-01
  rms(prec ) = 0.13254E+00
  weight for this iteration     100.00

 eigenvalues of (default mixing * dielectric matrix)
  average eigenvalue GAMMA=   1.0372
  3.5546  2.4588  1.3190  1.1938  0.0447  0.8438  0.8438  0.6616  0.6616  0.6571
  0.3936  0.3936  0.4569

 Free energy of the ion-electron system (eV)
  ---------------------------------------------------
  alpha Z        PSCENC =       401.59370410
  Ewald energy   TEWEN  =     -7268.20414406
  -Hartree energ DENC   =     -3152.49473152
  -exchange      EXHF   =         0.00000000
  -V(xc)+E(xc)   XCENC  =       478.94522272
  PAW double counting   =      6988.30987699    -7004.17553843
  entropy T*S    EENTRO =         0.01878712
  eigenvalues    EBANDS =      -643.05624490
  atomic energy  EATOM  =     10015.26539877
  Solvation  Ediel_sol  =         0.00000000
  ---------------------------------------------------
  free energy    TOTEN  =      -183.79766920 eV

  energy without entropy =     -183.81645632  energy(sigma->0) =     -183.80236598


--------------------------------------------------------------------------------------------------------




----------------------------------------- Iteration    1(  19)  ---------------------------------------


    POTLOK:  cpu time    0.0134: real time    0.0139
    SETDIJ:  cpu time    0.0038: real time    0.0038
     EDDAV:  cpu time    6.1675: real time    6.1642
       DOS:  cpu time    0.0211: real time    0.0211
    CHARGE:  cpu time    0.2745: real time    0.2745
    MIXING:  cpu time    0.0013: real time    0.0013
    --------------------------------------------
      LOOP:  cpu time    6.4827: real time    6.5830

 eigenvalue-minimisations  : 12664
 total energy-change (2. order) :-0.1553764E-02  (-0.1666261E-03)
 number of electron     150.9999918 magnetization 
 augmentation part       25.5360903 magnetization 

 Broyden mixing:
  rms(total) = 0.68076E-01    rms(broyden)= 0.68068E-01
  rms(prec ) = 0.94477E-01
  weight for this iteration     100.00

 eigenvalues of (default mixing * dielectric matrix)
  average eigenvalue GAMMA=   1.1037
  4.2325  2.3941  1.7761  1.1297  0.9946  0.9946  0.0447  0.7467  0.7467  0.6717
  0.3924  0.3924  0.4677  0.4677

 Free energy of the ion-electron system (eV)
  ---------------------------------------------------
  alpha Z        PSCENC =       401.59370410
  Ewald energy   TEWEN  =     -7268.20414406
  -Hartree energ DENC   =     -3152.49493567
  -exchange      EXHF   =         0.00000000
  -V(xc)+E(xc)   XCENC  =       478.98031941
  PAW double counting   =      6988.40504712    -7004.24847938
  entropy T*S    EENTRO =         0.01757549
  eigenvalues    EBANDS =      -643.11370876
  atomic energy  EATOM  =     10015.26539877
  Solvation  Ediel_sol  =         0.00000000
  ---------------------------------------------------
  free energy    TOTEN  =      -183.79922296 eV

  energy without entropy =     -183.81679846  energy(sigma->0) =     -183.80361684


--------------------------------------------------------------------------------------------------------




[...]
     61       0.7061      2.00000
     62       0.7814      2.00000
     63       0.9702      2.00000
     64       1.0662      2.00000
     65       3.2939      1.99056
     66       3.3384      1.99143
     67       3.3487      1.99285
     68       3.3730      1.99894
     69       3.4179      2.02314
     70       3.4411      2.04239
     71       3.4766      2.07597
     72       3.4888      2.08655
     73       3.5425      2.09700
     74       3.5627      2.07173
     75       3.6354      1.75448
     76       3.6505      1.63952
     77       4.0348     -0.00988
     78       4.0431     -0.00557
     79       4.2199      0.00391
     80       4.2491      0.00239
     81       4.5449      0.00000
     82       4.5943      0.00000
     83       4.7562      0.00000
     84       4.8001      0.00000
     85       9.1139      0.00000
     86       9.3513      0.00000
     87       9.5355      0.00000
     88       9.5611      0.00000
     89       9.8177      0.00000
     90       9.9525      0.00000
     91      10.0805      0.00000
     92      10.1940      0.00000
     93      10.3512      0.00000
     94      10.4809      0.00000
     95      10.5983      0.00000

 k-point    45 :       0.3333    0.4000    0.5000
  band No.  band energies     occupation 
      1     -18.7807      2.00000
      2     -18.7236      2.00000
      3     -18.4920      2.00000
      4     -18.4246      2.00000
      5     -16.7320      2.00000
      6     -16.7151      2.00000
      7     -16.4951      2.00000
      8     -16.4736      2.00000
      9     -16.3029      2.00000
     10     -16.2578      2.00000
     11     -16.2223      2.00000
     12     -16.1880      2.00000
     13     -16.1260      2.00000
     14     -16.0431      2.00000
     15     -15.9518      2.00000
     16     -15.8262      2.00000
     17      -6.0965      2.00000
     18      -6.0610      2.00000
     19      -5.9507      2.00000
     20      -5.9071      2.00000
     21      -3.9208      2.00000
     22      -3.8835      2.00000
     23      -3.8452      2.00000
     24      -3.8097      2.00000
     25      -3.7070      2.00000
     26      -3.6991      2.00000
     27      -3.6689      2.00000
     28      -3.5541      2.00000
     29      -3.3015      2.00000
     30      -3.2608      2.00000
     31      -3.0675      2.00000
     32      -3.0154      2.00000
     33      -2.5558      2.00000
     34      -2.5028      2.00000
     35      -2.3715      2.00000
     36      -2.3624      2.00000
     37      -1.9320      2.00000
     38      -1.8205      2.00000
     39      -1.6240      2.00000
     40      -1.4571      2.00000
     41      -1.4039      2.00000
     42      -1.3238      2.00000
     43      -1.2744      2.00000
     44      -1.2059      2.00000
     45      -0.9970      2.00000
     46      -0.9706      2.00000
     47      -0.9564      2.00000
     48      -0.8152      2.00000
     49      -0.5796      2.00000
     50      -0.5662      2.00000
     51      -0.4038      2.00000
     52      -0.2762      2.00000
     53      -0.0545      2.00000
     54      -0.0508      2.00000
     55       0.0356      2.00000
     56       0.2194      2.00000
     57       0.2951      2.00000
     58       0.3782      2.00000
     59       0.6132      2.00000
     60       0.6776      2.00000
     61       0.7056      2.00000
     62       0.7524      2.00000
     63       0.9628      2.00000
     64       1.0608      2.00000
     65       3.3019      1.99027
     66       3.3262      1.99047
     67       3.3545      1.99391
     68       3.3747      1.99956
     69       3.4185      2.02364
     70       3.4468      2.04769
     71       3.4706      2.07044
     72       3.4810      2.07997
     73       3.5468      2.09335
     74       3.5619      2.07324
     75       3.6201      1.85436
     76       3.6473      1.66498
     77       4.0162     -0.02181
     78       4.0592      0.00104
     79       4.1676      0.00763
     80       4.2547      0.00216
     81       4.5649      0.00000
     82       4.6013      0.00000
     83       4.7753      0.00000
     84       4.7877      0.00000
     85       9.1477      0.00000
     86       9.3429      0.00000
     87       9.4863      0.00000
     88       9.6110      0.00000
     89       9.8232      0.00000
     90       9.9969      0.00000
     91      10.0158      0.00000
     92      10.1790      0.00000
     93      10.3654      0.00000
     94      10.5233      0.00000
     95      10.5499      0.00000

 k-point    46 :      -0.3333    0.4000    0.5000
  band No.  band energies     occupation 
      1     -18.7807      2.00000
      2     -18.7237      2.00000
      3     -18.4920      2.00000
      4     -18.4247      2.00000
      5     -16.7307      2.00000
      6     -16.7166      2.00000
      7     -16.4971      2.00000
      8     -16.4714      2.00000
      9     -16.3016      2.00000
     10     -16.2615      2.00000
     11     -16.2215      2.00000
     12     -16.1818      2.00000
     13     -16.1310      2.00000
     14     -16.0435      2.00000
     15     -15.9508      2.00000
     16     -15.8263      2.00000
     17      -6.0968      2.00000
     18      -6.0605      2.00000
     19      -5.9506      2.00000
     20      -5.9076      2.00000
     21      -3.9268      2.00000
     22      -3.9102      2.00000
     23      -3.8216      2.00000
     24      -3.7733      2.00000
     25      -3.7436      2.00000
     26      -3.6836      2.00000
     27      -3.6389      2.00000
     28      -3.5749      2.00000
     29      -3.3297      2.00000
     30      -3.2746      2.00000
     31      -3.0578      2.00000
     32      -2.9959      2.00000
     33      -2.5753      2.00000
     34      -2.4718      2.00000
     35      -2.3949      2.00000
     36      -2.3476      2.00000
     37      -1.9413      2.00000
     38      -1.8161      2.00000
     39      -1.6060      2.00000
     40      -1.4537      2.00000
     41      -1.3961      2.00000
     42      -1.3752      2.00000
     43      -1.3158      2.00000
     44      -1.1476      2.00000
     45      -1.0453      2.00000
     46      -0.9771      2.00000
     47      -0.8798      2.00000
     48      -0.8188      2.00000
     49      -0.5972      2.00000
     50      -0.5571      2.00000
     51      -0.3967      2.00000
     52      -0.2861      2.00000
     53      -0.0938      2.00000
     54      -0.0082      2.00000
     55       0.0588      2.00000
     56       0.1843      2.00000
     57       0.2792      2.00000
     58       0.4214      2.00000
     59       0.5790      2.00000
     60       0.6558      2.00000
     61       0.7292      2.00000
     62       0.7676      2.00000
     63       0.9565      2.00000
     64       1.0633      2.00000
     65       3.3027      1.99025
     66       3.3236      1.99035
     67       3.3617      1.99557
     68       3.3674      1.99715
     69       3.4238      2.02768
     70       3.4437      2.04479
     71       3.4726      2.07229
     72       3.4803      2.07931
     73       3.5462      2.09395
     74       3.5591      2.07795
     75       3.6232      1.83550
     76       3.6475      1.66356
     77       4.0178     -0.02065
     78       4.0537     -0.00095
     79       4.1838      0.00642
     80       4.2428      0.00268
     81       4.5471      0.00000
     82       4.6212      0.00000
     83       4.7585      0.00000
     84       4.8002      0.00000
     85       9.1160      0.00000
     86       9.3744      0.00000
     87       9.5080      0.00000
     88       9.6124      0.00000
     89       9.8428      0.00000
     90       9.9598      0.00000
     91      10.0154      0.00000
     92      10.1386      0.00000
     93      10.3374      0.00000
     94      10.6077      0.00000
     95      10.6613      0.00000


--------------------------------------------------------------------------------------------------------


 soft charge-density along one line, spin component           1
         0         1         2         3         4         5         6         7         8         9
 total charge-density along one line
 
 pseudopotential strength for first ion, spin component:           1
  1.170  -0.045  -0.000   0.000   0.000
 -0.045  -0.052   0.000  -0.000  -0.000
 -0.000   0.000  -0.365  -0.000  -0.000
  0.000  -0.000  -0.000  -0.366  -0.001
  0.000  -0.000  -0.000  -0.001  -0.365
 total augmentation occupancy for first ion, spin component:           1
  0.485  -0.058   0.000   0.000   0.000
 -0.058   0.008   0.000   0.000   0.000
  0.000   0.000   0.050   0.009   0.012
  0.000   0.000   0.009   0.061   0.002
  0.000   0.000   0.012   0.002   0.052


------------------------ aborting loop because EDIFF is reached ----------------------------------------


    CHARGE:  cpu time    0.2719: real time    0.2717
    FORLOC:  cpu time    0.0048: real time    0.0048
    FORNL :  cpu time    1.2232: real time    1.2227
    STRESS:  cpu time    3.6702: real time    3.6682
    FORCOR:  cpu time    0.0165: real time    0.0165
    FORHAR:  cpu time    0.0073: real time    0.0073
    MIXING:  cpu time    0.0041: real time    0.0041
    OFIELD:  cpu time    0.0000: real time    0.0000

  FORCE on cell =-STRESS in cart. coord.  units (eV):
  Direction    XX          YY          ZZ          XY          YZ          ZX
  --------------------------------------------------------------------------------------
  Alpha Z   401.59370   401.59370   401.59370
  Ewald   -2475.07765 -2312.57607 -2318.47612   121.61570    31.31002   -60.40489
  Hartree   971.76581  1266.36708  1083.47560    51.76542    13.33426   -30.45138
  E(xc)    -715.07181  -714.83267  -715.39338     0.12620     0.09512     0.02649
  Local    -745.99676 -1219.98486 -1000.45985  -167.10381   -41.51642    89.23021
  n-local  -307.35402  -318.98665  -307.26780     1.47252     0.02271     0.83764
  augment   222.27665   221.78698   223.35756    -0.28457    -0.56084    -0.88861
  Kinetic  2623.15686  2650.43789  2614.99358    -8.04326    -2.34038     2.11654
  Fock        0.00000     0.00000     0.00000     0.00000     0.00000     0.00000
  -------------------------------------------------------------------------------------
  Total     -24.70721   -26.19459   -18.17672    -0.45180     0.34447     0.46600
  in kB    -130.94522  -138.82813   -96.33441    -2.39449     1.82564     2.46972
  external pressure =     -122.04 kB  Pullay stress =        0.00 kB


 VOLUME and BASIS-vectors are now :
 -----------------------------------------------------------------------------
  energy-cutoff  :      441.00
  volume of cell :      302.30
      direct lattice vectors                 reciprocal lattice vectors
    10.450668000  0.000000000  0.000000000     0.095687663  0.000000000  0.000000000
     0.000000000  6.087351000  0.000000000     0.000000000  0.164275068  0.000000000
     0.000000000  0.000000000  4.751955000     0.000000000  0.000000000  0.210439703

  length of vectors
    10.450668000  6.087351000  4.751955000     0.095687663  0.164275068  0.210439703


 FORCES acting on ions
    electron-ion (+dipol)            ewald-force                    non-local-force                 convergence-correction
 -----------------------------------------------------------------------------------------------
   0.583E-06 -.728E-05 0.677E-05   -.860E-05 0.476E-04 -.300E-04   0.000E+00 0.000E+00 0.000E+00   0.226E-05 0.439E-07 -.210E-08
   -.702E-05 -.683E-05 -.166E-04   0.820E-04 0.454E-04 0.388E-04   0.000E+00 0.000E+00 0.000E+00   -.226E-05 0.388E-07 0.348E-08
   -.859E-05 0.826E-05 -.148E-04   0.966E-04 -.588E-04 0.246E-04   0.000E+00 0.000E+00 0.000E+00   -.226E-05 -.393E-07 0.367E-08
   0.114E+03 -.909E+01 -.896E+02   -.121E+03 0.878E+01 0.122E+03   0.754E+01 0.297E+00 -.322E+02   0.337E-02 0.235E-02 -.377E-03
   -.336E+02 0.982E+02 -.429E+02   0.228E+02 -.121E+03 0.560E+02   0.108E+02 0.227E+02 -.131E+02   0.156E-03 0.200E-02 0.366E-02
   -.216E+02 -.110E+03 -.451E+02   0.110E+02 0.133E+03 0.580E+02   0.106E+02 -.230E+02 -.128E+02   -.750E-03 -.517E-02 0.227E-02
   -.114E+03 0.909E+01 0.896E+02   0.121E+03 -.878E+01 -.122E+03   -.754E+01 -.297E+00 0.322E+02   -.334E-02 -.235E-02 0.377E-03
   -.670E+02 0.179E+02 -.101E+03   0.969E+02 -.178E+02 0.116E+03   -.299E+02 -.145E+00 -.150E+02   0.399E-04 -.222E-02 0.163E-02
   -.103E+03 -.585E+01 -.923E+02   0.108E+03 0.595E+01 0.124E+03   -.515E+01 -.105E+00 -.318E+02   0.438E-02 -.212E-03 -.288E-02
   0.216E+02 0.110E+03 0.451E+02   -.110E+02 -.133E+03 -.580E+02   -.106E+02 0.230E+02 0.128E+02   0.767E-03 0.517E-02 -.227E-02
   0.133E+02 -.970E+02 -.436E+02   -.524E+00 0.121E+03 0.571E+02   -.128E+02 -.239E+02 -.135E+02   -.118E-02 0.410E-02 -.588E-03
   -.133E+02 0.970E+02 0.436E+02   0.524E+00 -.121E+03 -.571E+02   0.128E+02 0.239E+02 0.135E+02   0.116E-02 -.410E-02 0.588E-03
   -.174E+02 -.105E+03 0.468E+02   0.385E+01 0.129E+03 -.605E+02   0.136E+02 -.249E+02 0.137E+02   0.204E-02 0.164E-02 0.305E-02
   0.670E+02 -.179E+02 0.101E+03   -.969E+02 0.178E+02 -.116E+03   0.299E+02 0.145E+00 0.150E+02   -.423E-05 0.222E-02 -.163E-02
   0.831E+02 0.439E+01 -.906E+02   -.113E+03 -.436E+01 0.103E+03   0.301E+02 -.291E-01 -.122E+02   -.283E-02 0.581E-03 -.164E-02
   -.831E+02 -.439E+01 0.906E+02   0.113E+03 0.436E+01 -.103E+03   -.301E+02 0.291E-01 0.122E+02   0.279E-02 -.581E-03 0.164E-02
   0.103E+03 0.585E+01 0.923E+02   -.108E+03 -.595E+01 -.124E+03   0.515E+01 0.105E+00 0.318E+02   -.441E-02 0.212E-03 0.288E-02
   0.174E+02 0.105E+03 -.468E+02   -.385E+01 -.129E+03 0.605E+02   -.136E+02 0.249E+02 -.137E+02   -.205E-02 -.164E-02 -.305E-02
   0.336E+02 -.982E+02 0.429E+02   -.228E+02 0.121E+03 -.560E+02   -.108E+02 -.227E+02 0.131E+02   -.140E-03 -.200E-02 -.366E-02
   0.404E+02 -.169E+02 -.123E+02   -.430E+02 0.165E+02 0.149E+02   0.265E+01 0.389E+00 -.261E+01   0.562E-03 0.152E-02 -.963E-03
   -.322E+02 -.329E+01 -.221E+02   0.333E+02 0.354E+01 0.226E+02   -.117E+01 -.248E+00 -.546E+00   0.237E-02 -.368E-03 0.748E-03
   0.322E+02 0.329E+01 0.221E+02   -.333E+02 -.354E+01 -.226E+02   0.117E+01 0.248E+00 0.546E+00   -.239E-02 0.368E-03 -.748E-03
   -.404E+02 0.169E+02 0.123E+02   0.430E+02 -.165E+02 -.149E+02   -.265E+01 -.389E+00 0.261E+01   -.539E-03 -.152E-02 0.963E-03
   -.643E+02 0.881E+01 -.247E+02   0.653E+02 -.800E+01 0.253E+02   -.999E+00 -.826E+00 -.605E+00   -.284E-04 0.152E-02 -.125E-03
   0.906E+02 -.633E+00 -.305E+02   -.883E+02 0.156E+00 0.314E+02   -.234E+01 0.497E+00 -.926E+00   -.113E-02 -.921E-03 -.955E-03
   -.906E+02 0.633E+00 0.305E+02   0.883E+02 -.155E+00 -.314E+02   0.234E+01 -.497E+00 0.926E+00   0.113E-02 0.921E-03 0.955E-03
   0.643E+02 -.881E+01 0.247E+02   -.653E+02 0.800E+01 -.253E+02   0.999E+00 0.826E+00 0.605E+00   0.365E-04 -.152E-02 0.126E-03
 -----------------------------------------------------------------------------------------------
   -.150E-01 -.133E-01 -.327E-01   -.284E-13 0.266E-14 0.355E-14   0.222E-15 0.000E+00 0.366E-14   -.119E-05 0.226E-07 -.144E-07
 
 
 POSITION                                       TOTAL-FORCE (eV/Angst)
 -----------------------------------------------------------------------------------
     -0.00000     -0.00000      0.00000        -0.000000      0.000000     -0.000000
      5.22533      3.04368      2.37598        -0.000000      0.000000     -0.000000
      5.22533     -0.00000      2.37598        -0.000000      0.000000     -0.000000
      1.20834      1.45495      3.58112        -0.009064     -0.012622      0.018548
      8.57340      3.36061      3.37122        -0.007885      0.014341     -0.016036
      8.64571      5.79296      3.46692        -0.009657      0.019999     -0.015557
      9.24234      4.63240      1.17084         0.009064      0.012622     -0.018548
      0.42043      4.62013      3.12268        -0.008129      0.008487      0.003253
      4.08107      4.55815      1.17922         0.005865     -0.000139      0.008707
      1.80496      0.29440      1.28504         0.009657     -0.019999      0.015557
      7.06006      2.76917      1.04030         0.003853      0.002495     -0.007676
      3.39061      3.31818      3.71166        -0.003853     -0.002495      0.007676
      3.40531      5.79871      3.69806         0.003884     -0.004944      0.010404
     10.03024      1.46722      1.62928         0.008129     -0.008487     -0.003253
      4.83946      1.53572      0.89096         0.007049      0.005156      0.000146
      5.61120      4.55163      3.86100        -0.007049     -0.005156     -0.000146
      6.36960      1.52920      3.57274        -0.005865      0.000139     -0.008707
      7.04536      0.28865      1.05389        -0.003884      0.004944     -0.010404
      1.87727      2.72674      1.38074         0.007885     -0.014341      0.016036
      1.06123      1.51541      2.04721        -0.000044     -0.003190      0.002363
      4.13703      4.56210      4.37909         0.008077      0.002980     -0.004109
      6.31364      1.52525      0.37286        -0.008077     -0.002980      0.004109
      9.38944      4.57194      2.70474         0.000044      0.003190     -0.002363
      8.11822      1.55926      2.47802        -0.003502     -0.011247     -0.008357
      7.65446      4.53572      0.01815         0.001211      0.019046     -0.008508
      2.79621      1.55163      4.73381        -0.001211     -0.019046      0.008508
      2.33244      4.52809      2.27394         0.003502      0.011247      0.008357
 -----------------------------------------------------------------------------------
    total drift:                               -0.014995     -0.013293     -0.032679


--------------------------------------------------------------------------------------------------------



  FREE ENERGIE OF THE ION-ELECTRON SYSTEM (eV)
  ---------------------------------------------------
  free  energy   TOTEN  =      -185.32271900 eV

  energy  without entropy=     -185.31790443  energy(sigma->0) =     -185.32151536
 
 d Force = 0.4299523E-03[ 0.374E-03, 0.486E-03]  d Energy = 0.4306583E-03-0.706E-06
 d Force =-0.2577317E+00[-0.260E+00,-0.256E+00]  d Ewald  =-0.2577311E+00-0.577E-06


--------------------------------------------------------------------------------------------------------


    POTLOK:  cpu time    0.0183: real time    0.0183


--------------------------------------------------------------------------------------------------------


 Quasi-Newton relaxation of ions (Broydens 2nd method)
  g(Force)  = 0.305E-03   g(Stress)= 0.000E+00

 retain information from N=  6 steps
 eigenvalues of (default step * inverse Hessian matrix)
  average eigenvalue of G=   3.2983
 eigenvalue spectrum of G is  7.5947  7.5947  1.6500  1.6500  0.6087  0.6918


--------------------------------------------------------------------------------------------------------


 writing wavefunctions
     LOOP+:  cpu time   26.7290: real time   31.9160
    4ORBIT:  cpu time    0.0000: real time    0.0000

 total amount of memory used by VASP on root node    66063. kBytes
========================================================================

   base      :      30000. kBytes
   nonlr-proj:        921. kBytes
   fftplans  :        927. kBytes
   grid      :       1951. kBytes
   one-center:         31. kBytes
   wavefun   :      32233. kBytes
 
  
  
 General timing and accounting informations for this job:
 ========================================================
  
                  Total CPU time used (sec):      962.202
                            User time (sec):      956.623
                          System time (sec):        5.579
                         Elapsed time (sec):      988.056
  
                   Maximum memory used (kb):      105048.
                   Average memory used (kb):           0.
  
                          Minor page faults:        80200
                          Major page faults:           11
                 Voluntary context switches:         5676
