 vasp.5.4.1 24Jun15 (build Jun 17 2016 15:57:28) complex                        
  
 executed on           IFC91_ompi date 2016.12.07  19:55:00
 running on   15 total cores
 distrk:  each k-point on   15 cores,    1 groups
 distr:  one band on NCORES_PER_BAND=  15 cores,    1 groups


--------------------------------------------------------------------------------------------------------


 INCAR:
 POTCAR:    PAW_PBE Li 17Jan2003                  
 POTCAR:   PAW_PBE O 08Apr2002                    
 POTCAR:    PAW_PBE P 17Jan2003                   
 POTCAR:   PAW_PBE Fe 06Sep2000                   

 ----------------------------------------------------------------------------- 
|                                                                             |
|           W    W    AA    RRRRR   N    N  II  N    N   GGGG   !!!           |
|           W    W   A  A   R    R  NN   N  II  NN   N  G    G  !!!           |
|           W    W  A    A  R    R  N N  N  II  N N  N  G       !!!           |
|           W WW W  AAAAAA  RRRRR   N  N N  II  N  N N  G  GGG   !            |
|           WW  WW  A    A  R   R   N   NN  II  N   NN  G    G                |
|           W    W  A    A  R    R  N    N  II  N    N   GGGG   !!!           |
|                                                                             |
|      For optimal performance we recommend to set                            |
|        NCORE= 4 - approx SQRT( number of cores)                             |
|      NCORE specifies how many cores store one orbital (NPAR=cpu/NCORE).     |
|      This setting can  greatly improve the performance of VASP for DFT.     |
|      The default, NPAR=number of cores might be grossly inefficient         |
|      on modern multi-core architectures or massively parallel machines.     |
|      Do your own testing !!!!                                               |
|      Unfortunately you need to use the default for GW and RPA calculations. |
|      (for HF NCORE is supported but not extensively tested yet)             |
|                                                                             |
 ----------------------------------------------------------------------------- 

 POTCAR:    PAW_PBE Li 17Jan2003                  
   VRHFIN =Li: s1p0                                                             
   LEXCH  = PE                                                                  
   EATOM  =     5.3001 eV,     .3895 Ry                                         
                                                                                
   TITEL  = PAW_PBE Li 17Jan2003                                                
   LULTRA =        F    use ultrasoft PP ?                                      
   IUNSCR =        1    unscreen: 0-lin 1-nonlin 2-no                           
   RPACOR =    1.500    partial core radius                                     
   POMASS =    7.010; ZVAL   =    1.000    mass and valenz                      
   RCORE  =    2.050    outmost cutoff radius                                   
   RWIGS  =    2.600; RWIGS  =    1.376    wigner-seitz radius (au A)           
   ENMAX  =  140.000; ENMIN  =  100.000 eV                                      
   ICORE  =        2    local potential                                         
   LCOR   =        T    correct aug charges                                     
   LPAW   =        T    paw PP                                                  
   EAUG   =  331.638                                                            
   DEXC   =    -.010                                                            
   RMAX   =    4.263    core radius for proj-oper                               
   RAUG   =    1.300    factor for augmentation sphere                          
   RDEP   =    2.094    radius for radial grids                                 
   QCUT   =   -2.932; QGAM   =    5.865    optimization parameters              
                                                                                
   Description                                                                  
     l     E      TYP  RCUT    TYP  RCUT                                        
     0   .000     23  2.050                                                     
     0  2.000     23  2.050                                                     
     1   .000     23  2.050                                                     
     2   .000     23  2.050                                                     
  local pseudopotential read in
  partial core-charges read in
  atomic valenz-charges read in
  non local Contribution for L=           0  read in
    real space projection operators read in
  non local Contribution for L=           0  read in
    real space projection operators read in
  non local Contribution for L=           1  read in
    real space projection operators read in
    PAW grid and wavefunctions read in
 
   number of l-projection  operators is LMAX  =           3
   number of lm-projection operators is LMMAX =           5
 
 POTCAR:   PAW_PBE O 08Apr2002                    
   VRHFIN =O: s2p4                                                              
   LEXCH  = PE                                                                  
   EATOM  =   432.3788 eV,   31.7789 Ry                                         
                                                                                
   TITEL  = PAW_PBE O 08Apr2002                                                 
   LULTRA =        F    use ultrasoft PP ?                                      
   IUNSCR =        0    unscreen: 0-lin 1-nonlin 2-no                           
   RPACOR =     .000    partial core radius                                     
   POMASS =   16.000; ZVAL   =    6.000    mass and valenz                      
   RCORE  =    1.520    outmost cutoff radius                                   
   RWIGS  =    1.550; RWIGS  =     .820    wigner-seitz radius (au A)           
   ENMAX  =  400.000; ENMIN  =  300.000 eV                                      
   ICORE  =        2    local potential                                         
   LCOR   =        T    correct aug charges                                     
   LPAW   =        T    paw PP                                                  
   EAUG   =  605.392                                                            
   DEXC   =     .000                                                            
   RMAX   =    2.264    core radius for proj-oper                               
   RAUG   =    1.300    factor for augmentation sphere                          
   RDEP   =    1.550    radius for radial grids                                 
   QCUT   =   -5.520; QGAM   =   11.041    optimization parameters              
                                                                                
   Description                                                                  
     l     E      TYP  RCUT    TYP  RCUT                                        
     0   .000     23  1.200                                                     
     0  -.700     23  1.200                                                     
     1   .000     23  1.520                                                     
     1   .600     23  1.520                                                     
     2   .000      7  1.500                                                     
  local pseudopotential read in
  atomic valenz-charges read in
  non local Contribution for L=           0  read in
    real space projection operators read in
  non local Contribution for L=           0  read in
    real space projection operators read in
  non local Contribution for L=           1  read in
    real space projection operators read in
  non local Contribution for L=           1  read in
    real space projection operators read in
    PAW grid and wavefunctions read in
 
   number of l-projection  operators is LMAX  =           4
   number of lm-projection operators is LMMAX =           8
 
 POTCAR:    PAW_PBE P 17Jan2003                   
   VRHFIN =P : s2p3                                                             
   LEXCH  = PE                                                                  
   EATOM  =   176.0430 eV,   12.9388 Ry                                         
                                                                                
   TITEL  = PAW_PBE P 17Jan2003                                                 
   LULTRA =        F    use ultrasoft PP ?                                      
   IUNSCR =        1    unscreen: 0-lin 1-nonlin 2-no                           
   RPACOR =    1.500    partial core radius                                     
   POMASS =   30.974; ZVAL   =    5.000    mass and valenz                      
   RCORE  =    1.900    outmost cutoff radius                                   
   RWIGS  =    2.330; RWIGS  =    1.233    wigner-seitz radius (au A)           
   ENMAX  =  270.000; ENMIN  =  191.280 eV                                      
   ICORE  =        2    local potential                                         
   LCOR   =        T    correct aug charges                                     
   LPAW   =        T    paw PP                                                  
   EAUG   =  342.924                                                            
   DEXC   =    -.002                                                            
   RMAX   =    2.887    core radius for proj-oper                               
   RAUG   =    1.300    factor for augmentation sphere                          
   RDEP   =    1.931    radius for radial grids                                 
   QCUT   =   -4.330; QGAM   =    8.659    optimization parameters              
                                                                                
   Description                                                                  
     l     E      TYP  RCUT    TYP  RCUT                                        
     0   .000     23  1.900                                                     
     0   .000     23  1.900                                                     
     1   .000     23  1.900                                                     
     1   .000     23  1.900                                                     
     2   .000     23  1.900                                                     
  local pseudopotential read in
  partial core-charges read in
  atomic valenz-charges read in
  non local Contribution for L=           0  read in
    real space projection operators read in
  non local Contribution for L=           0  read in
    real space projection operators read in
  non local Contribution for L=           1  read in
    real space projection operators read in
  non local Contribution for L=           1  read in
    real space projection operators read in
    PAW grid and wavefunctions read in
 
   number of l-projection  operators is LMAX  =           4
   number of lm-projection operators is LMMAX =           8
 
 POTCAR:   PAW_PBE Fe 06Sep2000                   
   VRHFIN =Fe:  d7 s1                                                           
   LEXCH  = PE                                                                  
   EATOM  =   594.4687 eV,   43.6922 Ry                                         
                                                                                
   TITEL  = PAW_PBE Fe 06Sep2000                                                
   LULTRA =        F    use ultrasoft PP ?                                      
   IUNSCR =        1    unscreen: 0-lin 1-nonlin 2-no                           
   RPACOR =    2.000    partial core radius                                     
   POMASS =   55.847; ZVAL   =    8.000    mass and valenz                      
   RCORE  =    2.300    outmost cutoff radius                                   
   RWIGS  =    2.460; RWIGS  =    1.302    wigner-seitz radius (au A)           
   ENMAX  =  267.883; ENMIN  =  200.912 eV                                      
   RCLOC  =    1.701    cutoff for local pot                                    
   LCOR   =        T    correct aug charges                                     
   LPAW   =        T    paw PP                                                  
   EAUG   =  511.368                                                            
   DEXC   =    -.022                                                            
   RMAX   =    2.817    core radius for proj-oper                               
   RAUG   =    1.300    factor for augmentation sphere                          
   RDEP   =    2.442    radius for radial grids                                 
   QCUT   =   -4.437; QGAM   =    8.874    optimization parameters              
                                                                                
   Description                                                                  
     l     E      TYP  RCUT    TYP  RCUT                                        
     2   .000     23  2.300                                                     
     2   .000     23  2.300                                                     
     0   .000     23  2.300                                                     
     0   .000     23  2.300                                                     
     1  -.200     23  2.300                                                     
     1   .000     23  2.300                                                     
     3   .000      7   .000                                                     
  local pseudopotential read in
  partial core-charges read in
  atomic valenz-charges read in
  non local Contribution for L=           2  read in
    real space projection operators read in
  non local Contribution for L=           2  read in
    real space projection operators read in
  non local Contribution for L=           0  read in
    real space projection operators read in
  non local Contribution for L=           0  read in
    real space projection operators read in
  non local Contribution for L=           1  read in
    real space projection operators read in
  non local Contribution for L=           1  read in
    real space projection operators read in
    PAW grid and wavefunctions read in
 
   number of l-projection  operators is LMAX  =           6
   number of lm-projection operators is LMMAX =          18
 
 Optimization of the real space projectors (new method)

 maximal supplied QI-value         = 18.33
 optimisation between [QCUT,QGAM] = [ 10.63, 21.45] = [ 31.65,128.80] Ry 
 Optimized for a Real-space Cutoff    1.13 Angstroem

   l    n(q)    QCUT    max X(q) W(low)/X(q) W(high)/X(q)  e(spline) 
   0      7    10.632    30.666    0.45E-04    0.40E-04    0.12E-07
   0      7    10.632    39.284    0.21E-03    0.37E-03    0.66E-07
   1      7    10.632     4.214    0.48E-03    0.63E-04    0.43E-07
 Optimization of the real space projectors (new method)

 maximal supplied QI-value         = 24.76
 optimisation between [QCUT,QGAM] = [ 10.64, 21.29] = [ 31.73,126.92] Ry 
 Optimized for a Real-space Cutoff    1.24 Angstroem

   l    n(q)    QCUT    max X(q) W(low)/X(q) W(high)/X(q)  e(spline) 
   0      8    10.645     4.192    0.70E-04    0.97E-04    0.61E-07
   0      8    10.645     8.473    0.43E-03    0.71E-03    0.17E-06
   1      7    10.645     2.474    0.95E-04    0.12E-03    0.31E-07
   1      7    10.645     3.912    0.31E-03    0.57E-03    0.16E-06
 Optimization of the real space projectors (new method)

 maximal supplied QI-value         = 19.84
 optimisation between [QCUT,QGAM] = [ 10.71, 21.43] = [ 32.15,128.60] Ry 
 Optimized for a Real-space Cutoff    1.20 Angstroem

   l    n(q)    QCUT    max X(q) W(low)/X(q) W(high)/X(q)  e(spline) 
   0      8    10.715     6.651    0.19E-04    0.13E-04    0.49E-08
   0      8    10.715    90.285    0.29E-03    0.24E-04    0.62E-07
   1      7    10.715     4.328    0.49E-04    0.39E-04    0.16E-07
   1      7    10.715    54.583    0.22E-03    0.53E-03    0.76E-07
 Optimization of the real space projectors (new method)

 maximal supplied QI-value         = 16.25
 optimisation between [QCUT,QGAM] = [ 10.73, 21.45] = [ 32.22,128.87] Ry 
 Optimized for a Real-space Cutoff    1.39 Angstroem

   l    n(q)    QCUT    max X(q) W(low)/X(q) W(high)/X(q)  e(spline) 
   2      8    10.726     4.378    0.63E-04    0.18E-04    0.44E-07
   2      8    10.726    23.237    0.16E-03    0.54E-03    0.20E-06
   0      9    10.726    17.641    0.27E-04    0.11E-04    0.53E-08
   0      9    10.726    50.908    0.30E-03    0.17E-03    0.46E-07
   1      8    10.726     6.148    0.30E-04    0.44E-04    0.30E-07
   1      8    10.726     8.345    0.17E-03    0.14E-03    0.14E-06
  PAW_PBE Li 17Jan2003                  :
 energy of atom  1       EATOM=   -5.3001
 kinetic energy error for atom=    0.0000 (will be added to EATOM!!)
 PAW_PBE O 08Apr2002                    :
 energy of atom  2       EATOM= -432.3788
 kinetic energy error for atom=    0.0450 (will be added to EATOM!!)
  PAW_PBE P 17Jan2003                   :
 energy of atom  3       EATOM= -176.0430
 kinetic energy error for atom=    0.0019 (will be added to EATOM!!)
 PAW_PBE Fe 06Sep2000                   :
 energy of atom  4       EATOM= -594.4687
 kinetic energy error for atom=    0.0038 (will be added to EATOM!!)
 
 
 POSCAR: i2a=[Li,O,P,Fe] ; LiFePO4.n3Li1v1.ion_re
  positions in direct lattice
  No initial velocities read in
 exchange correlation table for  LEXCH =        8
   RHO(1)=    0.500       N(1)  =     2000
   RHO(2)=  100.500       N(2)  =     4000
 


--------------------------------------------------------------------------------------------------------


 ion  position               nearest neighbor table
   1  0.000  0.500  0.000-   8 2.11  14 2.11   7 2.20   4 2.20   5 2.22  19 2.22  20 2.69  23 2.69

   2  0.500  0.500  0.500-  15 2.11  16 2.11   9 2.20  17 2.20  12 2.22  11 2.22  21 2.69  22 2.69
                             3 3.04   3 3.04
   3  0.500  0.000  0.500-  15 2.11  16 2.11   9 2.20  17 2.20  13 2.22  18 2.22  21 2.69  22 2.69
                             2 3.04   2 3.04
   4  0.097  0.250  0.743-  20 1.54   1 2.20  26 2.23
   5  0.834  0.547  0.714-  23 1.57  24 2.10   1 2.22  25 2.27
   6  0.834  0.953  0.714-  23 1.57  24 2.10  25 2.27
   7  0.903  0.750  0.257-  23 1.54   1 2.20  25 2.23
   8  0.043  0.750  0.706-  23 1.55   1 2.11  27 2.14
   9  0.403  0.750  0.243-  21 1.54   3 2.20   2 2.20  27 2.23
  10  0.166  0.047  0.286-  20 1.57  27 2.10  26 2.27
  11  0.666  0.453  0.214-  22 1.57  25 2.10   2 2.22  24 2.27
  12  0.334  0.547  0.786-  21 1.57  26 2.10   2 2.22  27 2.27
  13  0.334  0.953  0.786-  21 1.57  26 2.10   3 2.22  27 2.27
  14  0.957  0.250  0.294-  20 1.55   1 2.11  24 2.14
  15  0.457  0.250  0.206-  22 1.55   3 2.11   2 2.11  26 2.14
  16  0.543  0.750  0.794-  21 1.55   3 2.11   2 2.11  25 2.14
  17  0.597  0.250  0.757-  22 1.54   3 2.20   2 2.20  24 2.23
  18  0.666  0.047  0.214-  22 1.57  25 2.10   3 2.22  24 2.27
  19  0.166  0.453  0.286-  20 1.57  27 2.10   1 2.22  26 2.27
  20  0.095  0.250  0.419-   4 1.54  14 1.55  10 1.57  19 1.57   1 2.69  26 2.87
  21  0.405  0.750  0.919-   9 1.54  16 1.55  12 1.57  13 1.57   2 2.69   3 2.69  27 2.87
  22  0.595  0.250  0.081-  17 1.54  15 1.55  11 1.57  18 1.57   2 2.69   3 2.69  24 2.87
  23  0.905  0.750  0.581-   7 1.54   8 1.55   5 1.57   6 1.57   1 2.69  25 2.87
  24  0.782  0.250  0.524-   6 2.10   5 2.10  14 2.14  17 2.23  11 2.27  18 2.27  22 2.87
  25  0.718  0.750  0.024-  11 2.10  18 2.10  16 2.14   7 2.23   5 2.27   6 2.27  23 2.87
  26  0.282  0.250  0.976-  13 2.10  12 2.10  15 2.14   4 2.23  10 2.27  19 2.27  20 2.87
  27  0.218  0.750  0.476-  10 2.10  19 2.10   8 2.14   9 2.23  12 2.27  13 2.27  21 2.87
 
  LATTYP: Found a simple orthorhombic cell.
 ALAT       =     4.7519550000
 B/A-ratio  =     1.2810203379
 C/A-ratio  =     2.1992354726
  
  Lattice vectors:
  
 A1 = (   0.0000000000,   0.0000000000,  -4.7519550000)
 A2 = (   0.0000000000,  -6.0873510000,   0.0000000000)
 A3 = ( -10.4506680000,   0.0000000000,   0.0000000000)


Analysis of symmetry for initial positions (statically):
=====================================================================
 Subroutine PRICEL returns:
 Original cell was already a primitive cell.
 

 Routine SETGRP: Setting up the symmetry group for a 
 simple orthorhombic supercell.


 Subroutine GETGRP returns: Found  2 space group operations
 (whereof  2 operations were pure point group operations)
 out of a pool of  8 trial point group operations.


The static configuration has the point symmetry S_2 .


Analysis of symmetry for dynamics (positions and initial velocities):
=====================================================================
 Subroutine PRICEL returns:
 Original cell was already a primitive cell.
 

 Routine SETGRP: Setting up the symmetry group for a 
 simple orthorhombic supercell.


 Subroutine GETGRP returns: Found  2 space group operations
 (whereof  2 operations were pure point group operations)
 out of a pool of  8 trial point group operations.


The dynamic configuration has the point symmetry S_2 .
 
 
 KPOINTS: Automatic Mesh                          

Automatic generation of k-mesh.
Space group operators:
 irot       det(A)        alpha          n_x          n_y          n_z        tau_x        tau_y        tau_z
    1     1.000000     0.000000     1.000000     0.000000     0.000000     0.000000     0.000000     0.000000
    2    -1.000000     0.000000     1.000000     0.000000     0.000000     0.000000     0.000000     0.000000
 
 Subroutine IBZKPT returns following result:
 ===========================================
 
 Found     46 irreducible k-points:
 
 Following reciprocal coordinates:
            Coordinates               Weight
  0.000000  0.000000  0.000000      1.000000
  0.333333  0.000000  0.000000      2.000000
  0.000000  0.200000  0.000000      2.000000
  0.333333  0.200000  0.000000      2.000000
 -0.333333  0.200000  0.000000      2.000000
  0.000000  0.400000  0.000000      2.000000
  0.333333  0.400000  0.000000      2.000000
 -0.333333  0.400000  0.000000      2.000000
  0.000000  0.000000  0.166667      2.000000
  0.333333  0.000000  0.166667      2.000000
 -0.333333  0.000000  0.166667      2.000000
  0.000000  0.200000  0.166667      2.000000
  0.333333  0.200000  0.166667      2.000000
 -0.333333  0.200000  0.166667      2.000000
  0.000000  0.400000  0.166667      2.000000
  0.333333  0.400000  0.166667      2.000000
 -0.333333  0.400000  0.166667      2.000000
  0.000000 -0.400000  0.166667      2.000000
  0.333333 -0.400000  0.166667      2.000000
 -0.333333 -0.400000  0.166667      2.000000
  0.000000 -0.200000  0.166667      2.000000
  0.333333 -0.200000  0.166667      2.000000
 -0.333333 -0.200000  0.166667      2.000000
  0.000000  0.000000  0.333333      2.000000
  0.333333  0.000000  0.333333      2.000000
 -0.333333  0.000000  0.333333      2.000000
  0.000000  0.200000  0.333333      2.000000
  0.333333  0.200000  0.333333      2.000000
 -0.333333  0.200000  0.333333      2.000000
  0.000000  0.400000  0.333333      2.000000
  0.333333  0.400000  0.333333      2.000000
 -0.333333  0.400000  0.333333      2.000000
  0.000000 -0.400000  0.333333      2.000000
  0.333333 -0.400000  0.333333      2.000000
 -0.333333 -0.400000  0.333333      2.000000
  0.000000 -0.200000  0.333333      2.000000
  0.333333 -0.200000  0.333333      2.000000
 -0.333333 -0.200000  0.333333      2.000000
  0.000000  0.000000  0.500000      1.000000
  0.333333  0.000000  0.500000      2.000000
  0.000000  0.200000  0.500000      2.000000
  0.333333  0.200000  0.500000      2.000000
 -0.333333  0.200000  0.500000      2.000000
  0.000000  0.400000  0.500000      2.000000
  0.333333  0.400000  0.500000      2.000000
 -0.333333  0.400000  0.500000      2.000000
 
 Following cartesian coordinates:
            Coordinates               Weight
  0.000000  0.000000  0.000000      1.000000
  0.031896  0.000000  0.000000      2.000000
  0.000000  0.032855  0.000000      2.000000
  0.031896  0.032855  0.000000      2.000000
 -0.031896  0.032855  0.000000      2.000000
  0.000000  0.065710  0.000000      2.000000
  0.031896  0.065710  0.000000      2.000000
 -0.031896  0.065710  0.000000      2.000000
  0.000000  0.000000  0.035073      2.000000
  0.031896  0.000000  0.035073      2.000000
 -0.031896  0.000000  0.035073      2.000000
  0.000000  0.032855  0.035073      2.000000
  0.031896  0.032855  0.035073      2.000000
 -0.031896  0.032855  0.035073      2.000000
  0.000000  0.065710  0.035073      2.000000
  0.031896  0.065710  0.035073      2.000000
 -0.031896  0.065710  0.035073      2.000000
  0.000000 -0.065710  0.035073      2.000000
  0.031896 -0.065710  0.035073      2.000000
 -0.031896 -0.065710  0.035073      2.000000
  0.000000 -0.032855  0.035073      2.000000
  0.031896 -0.032855  0.035073      2.000000
 -0.031896 -0.032855  0.035073      2.000000
  0.000000  0.000000  0.070147      2.000000
  0.031896  0.000000  0.070147      2.000000
 -0.031896  0.000000  0.070147      2.000000
  0.000000  0.032855  0.070147      2.000000
  0.031896  0.032855  0.070147      2.000000
 -0.031896  0.032855  0.070147      2.000000
  0.000000  0.065710  0.070147      2.000000
  0.031896  0.065710  0.070147      2.000000
 -0.031896  0.065710  0.070147      2.000000
  0.000000 -0.065710  0.070147      2.000000
  0.031896 -0.065710  0.070147      2.000000
 -0.031896 -0.065710  0.070147      2.000000
  0.000000 -0.032855  0.070147      2.000000
  0.031896 -0.032855  0.070147      2.000000
 -0.031896 -0.032855  0.070147      2.000000
  0.000000  0.000000  0.105220      1.000000
  0.031896  0.000000  0.105220      2.000000
  0.000000  0.032855  0.105220      2.000000
  0.031896  0.032855  0.105220      2.000000
 -0.031896  0.032855  0.105220      2.000000
  0.000000  0.065710  0.105220      2.000000
  0.031896  0.065710  0.105220      2.000000
 -0.031896  0.065710  0.105220      2.000000
 


--------------------------------------------------------------------------------------------------------




 Dimension of arrays:
   k-points           NKPTS =     46   k-points in BZ     NKDIM =     46   number of bands    NBANDS=     95
   number of dos      NEDOS =    301   number of ions     NIONS =     27
   non local maximal  LDIM  =      6   non local SUM 2l+1 LMDIM =     18
   total plane-waves  NPLWV =  41472
   max r-space proj   IRMAX =   1609   max aug-charges    IRDMAX=   5086
   dimension x,y,z NGX =    54 NGY =   32 NGZ =   24
   dimension x,y,z NGXF=   108 NGYF=   64 NGZF=   48
   support grid    NGXF=   108 NGYF=   64 NGZF=   48
   ions per type =               3  16   4   4
 NGX,Y,Z   is equivalent  to a cutoff of   8.59,  8.74,  8.40 a.u.
 NGXF,Y,Z  is equivalent  to a cutoff of  17.18, 17.48, 16.79 a.u.


 I would recommend the setting:
   dimension x,y,z NGX =    54 NGY =   31 NGZ =   24
 SYSTEM =  Final conf. for neb from mp-19017       
 POSCAR =  i2a=[Li,O,P,Fe] ; LiFePO4.n3Li1v1.ion_re

 Startparameter for this run:
   NWRITE =      2    write-flag & timer
   PREC   = normal    normal or accurate (medium, high low for compatibility)
   ISTART =      0    job   : 0-new  1-cont  2-samecut
   ICHARG =      2    charge: 1-file 2-atom 10-const
   ISPIN  =      1    spin polarized calculation?
   LNONCOLLINEAR =      F non collinear calculations
   LSORBIT =      F    spin-orbit coupling
   INIWAV =      1    electr: 0-lowe 1-rand  2-diag
   LASPH  =      F    aspherical Exc in radial PAW
   METAGGA=      F    non-selfconsistent MetaGGA calc.

 Electronic Relaxation 1
   ENCUT  =  441.0 eV  32.41 Ry    5.69 a.u.  17.89 10.42  8.14*2*pi/ulx,y,z
   ENINI  =  441.0     initial cutoff
   ENAUG  =  776.2 eV  augmentation charge cutoff
   NELM   =     50;   NELMIN=  4; NELMDL= -5     # of ELM steps 
   EDIFF  = 0.6E-05   stopping-criterion for ELM
   LREAL  =      T    real-space projection
   NLSPLINE    = F    spline interpolate recip. space projectors
   LCOMPAT=      F    compatible to vasp.4.4
   GGA_COMPAT  = T    GGA compatible to vasp.4.4-vasp.4.6
   LMAXPAW     = -100 max onsite density
   LMAXMIX     =    2 max onsite mixed and CHGCAR
   VOSKOWN=      0    Vosko Wilk Nusair interpolation
   ROPT   =   -0.00050  -0.00050  -0.00050  -0.00050
 Ionic relaxation
   EDIFFG = -.3E-01   stopping-criterion for IOM
   NSW    =     20    number of steps for IOM
   NBLOCK =      1;   KBLOCK =     20    inner block; outer block 
   IBRION =      1    ionic relax: 0-MD 1-quasi-New 2-CG
   NFREE  =      0    steps in history (QN), initial steepest desc. (CG)
   ISIF   =      2    stress and relaxation
   IWAVPR =     11    prediction:  0-non 1-charg 2-wave 3-comb
   ISYM   =      2    0-nonsym 1-usesym 2-fastsym
   LCORR  =      T    Harris-Foulkes like correction to forces

   POTIM  = 0.5000    time-step for ionic-motion
   TEIN   =    0.0    initial temperature
   TEBEG  =    0.0;   TEEND  =   0.0 temperature during run
   SMASS  =  -3.00    Nose mass-parameter (am)
   estimated Nose-frequenzy (Omega)   =  0.10E-29 period in steps =****** mass=  -0.250E-26a.u.
   SCALEE = 1.0000    scale energy and forces
   NPACO  =    256;   APACO  = 16.0  distance and # of slots for P.C.
   PSTRESS=    0.0 pullay stress

  Mass of Ions in am
   POMASS =   7.01 16.00 30.97 55.85
  Ionic Valenz
   ZVAL   =   1.00  6.00  5.00  8.00
  Atomic Wigner-Seitz radii
   RWIGS  =  -1.00 -1.00 -1.00 -1.00
  virtual crystal weights 
   VCA    =   1.00  1.00  1.00  1.00
   NELECT =     151.0000    total number of electrons
   NUPDOWN=      -1.0000    fix difference up-down

 DOS related values:
   EMIN   =  10.00;   EMAX   =-10.00  energy-range for DOS
   EFERMI =   0.00
   ISMEAR =     2;   SIGMA  =   0.20  broadening in eV -4-tet -1-fermi 0-gaus

 Electronic relaxation 2 (details)
   IALGO  =     38    algorithm
   LDIAG  =      T    sub-space diagonalisation (order eigenvalues)
   LSUBROT=      F    optimize rotation matrix (better conditioning)
   TURBO    =      0    0=normal 1=particle mesh
   IRESTART =      0    0=no restart 2=restart with 2 vectors
   NREBOOT  =      0    no. of reboots
   NMIN     =      0    reboot dimension
   EREF     =   0.00    reference energy to select bands
   IMIX   =      4    mixing-type and parameters
     AMIX     =   0.40;   BMIX     =  1.00
     AMIX_MAG =   1.60;   BMIX_MAG =  1.00
     AMIN     =   0.10
     WC   =   100.;   INIMIX=   1;  MIXPRE=   1;  MAXMIX=  40

 Intra band minimization:
   WEIMIN = 0.0010     energy-eigenvalue tresh-hold
   EBREAK =  0.16E-07  absolut break condition
   DEPER  =   0.30     relativ break condition  

   TIME   =   0.40     timestep for ELM

  volume/ion in A,a.u.               =      11.20        75.56
  Fermi-wavevector in a.u.,A,eV,Ry     =   1.298929  2.454621 22.955992  1.687218
  Thomas-Fermi vector in A             =   2.430226
 
 Write flags
   LWAVE  =      T    write WAVECAR
   LCHARG =      T    write CHGCAR
   LVTOT  =      F    write LOCPOT, total local potential
   LVHAR  =      F    write LOCPOT, Hartree potential only
   LELF   =      F    write electronic localiz. function (ELF)
   LORBIT =      0    0 simple, 1 ext, 2 COOP (PROOUT)


 Dipole corrections
   LMONO  =      F    monopole corrections only (constant potential shift)
   LDIPOL =      F    correct potential (dipole corrections)
   IDIPOL =      0    1-x, 2-y, 3-z, 4-all directions 
   EPSILON=  1.0000000 bulk dielectric constant

 Exchange correlation treatment:
   GGA     =    --    GGA type
   LEXCH   =     8    internal setting for exchange type
   VOSKOWN=      0    Vosko Wilk Nusair interpolation
   LHFCALC =     F    Hartree Fock is set to
   LHFONE  =     F    Hartree Fock one center treatment
   AEXX    =    0.0000 exact exchange contribution

 Linear response parameters
   LEPSILON=     F    determine dielectric tensor
   LRPA    =     F    only Hartree local field effects (RPA)
   LNABLA  =     F    use nabla operator in PAW spheres
   LVEL    =     F    velocity operator in full k-point grid
   LINTERFAST=   F  fast interpolation
   KINTER  =     0    interpolate to denser k-point grid
   CSHIFT  =0.1000    complex shift for real part using Kramers Kronig
   OMEGAMAX=  -1.0    maximum frequency
   DEG_THRESHOLD= 0.2000000E-02 threshold for treating states as degnerate
   RTIME   =    0.100 relaxation time in fs

 Orbital magnetization related:
   ORBITALMAG=     F  switch on orbital magnetization
   LCHIMAG   =     F  perturbation theory with respect to B field
   DQ        =  0.001000  dq finite difference perturbation B field



--------------------------------------------------------------------------------------------------------


 quasi-Newton-method for relaxation of ions
 charge density and potential will be updated during run
 non-spin polarized calculation
 Variant of blocked Davidson
 Davidson routine will perform the subspace rotation
 perform sub-space diagonalisation
    after iterative eigenvector-optimisation
 modified Broyden-mixing scheme, WC =      100.0
 initial mixing is a Kerker type mixing with AMIX =  0.4000 and BMIX =      1.0000
 Hartree-type preconditioning will be used
 using additional bands           19
 real space projection scheme for non local part
 use partial core corrections
 calculate Harris-corrections to forces 
   (improved forces if not selfconsistent)
 use gradient corrections 
 use of overlap-Matrix (Vanderbilt PP)
 Methfessel and Paxton  Order N= 2 SIGMA  =   0.20


--------------------------------------------------------------------------------------------------------


  energy-cutoff  :      441.00
  volume of cell :      302.30
      direct lattice vectors                 reciprocal lattice vectors
    10.450668000  0.000000000  0.000000000     0.095687663  0.000000000  0.000000000
     0.000000000  6.087351000  0.000000000     0.000000000  0.164275068  0.000000000
     0.000000000  0.000000000  4.751955000     0.000000000  0.000000000  0.210439703

  length of vectors
    10.450668000  6.087351000  4.751955000     0.095687663  0.164275068  0.210439703


 
 k-points in units of 2pi/SCALE and weight: Automatic Mesh                          
   0.00000000  0.00000000  0.00000000       0.011
   0.03189589  0.00000000  0.00000000       0.022
   0.00000000  0.03285501  0.00000000       0.022
   0.03189589  0.03285501  0.00000000       0.022
  -0.03189589  0.03285501  0.00000000       0.022
   0.00000000  0.06571003  0.00000000       0.022
   0.03189589  0.06571003  0.00000000       0.022
  -0.03189589  0.06571003  0.00000000       0.022
   0.00000000  0.00000000  0.03507328       0.022
   0.03189589  0.00000000  0.03507328       0.022
  -0.03189589  0.00000000  0.03507328       0.022
   0.00000000  0.03285501  0.03507328       0.022
   0.03189589  0.03285501  0.03507328       0.022
  -0.03189589  0.03285501  0.03507328       0.022
   0.00000000  0.06571003  0.03507328       0.022
   0.03189589  0.06571003  0.03507328       0.022
  -0.03189589  0.06571003  0.03507328       0.022
   0.00000000 -0.06571003  0.03507328       0.022
   0.03189589 -0.06571003  0.03507328       0.022
  -0.03189589 -0.06571003  0.03507328       0.022
   0.00000000 -0.03285501  0.03507328       0.022
   0.03189589 -0.03285501  0.03507328       0.022
  -0.03189589 -0.03285501  0.03507328       0.022
   0.00000000  0.00000000  0.07014657       0.022
   0.03189589  0.00000000  0.07014657       0.022
  -0.03189589  0.00000000  0.07014657       0.022
   0.00000000  0.03285501  0.07014657       0.022
   0.03189589  0.03285501  0.07014657       0.022
  -0.03189589  0.03285501  0.07014657       0.022
   0.00000000  0.06571003  0.07014657       0.022
   0.03189589  0.06571003  0.07014657       0.022
  -0.03189589  0.06571003  0.07014657       0.022
   0.00000000 -0.06571003  0.07014657       0.022
   0.03189589 -0.06571003  0.07014657       0.022
  -0.03189589 -0.06571003  0.07014657       0.022
   0.00000000 -0.03285501  0.07014657       0.022
   0.03189589 -0.03285501  0.07014657       0.022
  -0.03189589 -0.03285501  0.07014657       0.022
   0.00000000  0.00000000  0.10521985       0.011
   0.03189589  0.00000000  0.10521985       0.022
   0.00000000  0.03285501  0.10521985       0.022
   0.03189589  0.03285501  0.10521985       0.022
  -0.03189589  0.03285501  0.10521985       0.022
   0.00000000  0.06571003  0.10521985       0.022
   0.03189589  0.06571003  0.10521985       0.022
  -0.03189589  0.06571003  0.10521985       0.022
 
 k-points in reciprocal lattice and weights: Automatic Mesh                          
   0.00000000  0.00000000  0.00000000       0.011
   0.33333333  0.00000000  0.00000000       0.022
   0.00000000  0.20000000  0.00000000       0.022
   0.33333333  0.20000000  0.00000000       0.022
  -0.33333333  0.20000000  0.00000000       0.022
   0.00000000  0.40000000  0.00000000       0.022
   0.33333333  0.40000000  0.00000000       0.022
  -0.33333333  0.40000000  0.00000000       0.022
   0.00000000  0.00000000  0.16666667       0.022
   0.33333333  0.00000000  0.16666667       0.022
  -0.33333333  0.00000000  0.16666667       0.022
   0.00000000  0.20000000  0.16666667       0.022
   0.33333333  0.20000000  0.16666667       0.022
  -0.33333333  0.20000000  0.16666667       0.022
   0.00000000  0.40000000  0.16666667       0.022
   0.33333333  0.40000000  0.16666667       0.022
  -0.33333333  0.40000000  0.16666667       0.022
   0.00000000 -0.40000000  0.16666667       0.022
   0.33333333 -0.40000000  0.16666667       0.022
  -0.33333333 -0.40000000  0.16666667       0.022
   0.00000000 -0.20000000  0.16666667       0.022
   0.33333333 -0.20000000  0.16666667       0.022
  -0.33333333 -0.20000000  0.16666667       0.022
   0.00000000  0.00000000  0.33333333       0.022
   0.33333333  0.00000000  0.33333333       0.022
  -0.33333333  0.00000000  0.33333333       0.022
   0.00000000  0.20000000  0.33333333       0.022
   0.33333333  0.20000000  0.33333333       0.022
  -0.33333333  0.20000000  0.33333333       0.022
   0.00000000  0.40000000  0.33333333       0.022
   0.33333333  0.40000000  0.33333333       0.022
  -0.33333333  0.40000000  0.33333333       0.022
   0.00000000 -0.40000000  0.33333333       0.022
   0.33333333 -0.40000000  0.33333333       0.022
  -0.33333333 -0.40000000  0.33333333       0.022
   0.00000000 -0.20000000  0.33333333       0.022
   0.33333333 -0.20000000  0.33333333       0.022
  -0.33333333 -0.20000000  0.33333333       0.022
   0.00000000  0.00000000  0.50000000       0.011
   0.33333333  0.00000000  0.50000000       0.022
   0.00000000  0.20000000  0.50000000       0.022
   0.33333333  0.20000000  0.50000000       0.022
  -0.33333333  0.20000000  0.50000000       0.022
   0.00000000  0.40000000  0.50000000       0.022
   0.33333333  0.40000000  0.50000000       0.022
  -0.33333333  0.40000000  0.50000000       0.022
 
 position of ions in fractional coordinates (direct lattice) 
   0.00000000  0.50000000  0.00000000
   0.50000000  0.50000000  0.50000000
   0.50000000  0.00000000  0.50000000
   0.09665500  0.25000000  0.74255700
   0.83438600  0.54718800  0.71384000
   0.83438600  0.95281300  0.71384000
   0.90334600  0.75000000  0.25744400
   0.04271700  0.75000000  0.70614300
   0.40334500  0.75000000  0.24255600
   0.16561400  0.04718800  0.28616100
   0.66561400  0.45281200  0.21383900
   0.33438600  0.54718800  0.78616100
   0.33438600  0.95281300  0.78616100
   0.95728300  0.25000000  0.29385800
   0.45728300  0.25000000  0.20614200
   0.54271700  0.75000000  0.79385900
   0.59665500  0.25000000  0.75744500
   0.66561400  0.04718800  0.21383900
   0.16561400  0.45281200  0.28616100
   0.09470200  0.25000000  0.41901800
   0.40529800  0.75000000  0.91901900
   0.59470200  0.25000000  0.08098000
   0.90529800  0.75000000  0.58098100
   0.78158500  0.25000000  0.52368000
   0.71841500  0.75000000  0.02368200
   0.28158500  0.25000000  0.97631900
   0.21841500  0.75000000  0.47631900
 
 position of ions in cartesian coordinates  (Angst):
   0.00000000  3.04367550  0.00000000
   5.22533400  3.04367550  2.37597750
   5.22533400  0.00000000  2.37597750
   1.01010932  1.52183775  3.52859745
   8.71989107  3.33092542  3.39213556
   8.71989107  5.80010717  3.39213556
   9.44056914  4.56551325  1.22336230
   0.44642118  4.56551325  3.35555976
   4.21522468  4.56551325  1.15261520
   1.73077693  0.28724992  1.35982419
   6.95611093  2.75642558  1.01615331
   3.49455707  3.33092542  3.73580169
   3.49455707  5.80010717  3.73580169
  10.00424682  1.52183775  1.39639999
   4.77891282  1.52183775  0.97957751
   5.67175518  4.56551325  3.77238224
   6.23544332  1.52183775  3.59934455
   6.95611093  0.28724992  1.01615331
   1.73077693  2.75642558  1.35982419
   0.98969916  1.52183775  1.99115468
   4.23563484  4.56551325  4.36713693
   6.21503316  1.52183775  0.38481332
   9.46096884  4.56551325  2.76079557
   8.16808535  1.52183775  2.48850379
   7.50791665  4.56551325  0.11253580
   2.94275135  1.52183775  4.63942395
   2.28258265  4.56551325  2.26344645
 


--------------------------------------------------------------------------------------------------------


 k-point  1 :   0.0000 0.0000 0.0000  plane waves:    6383
 k-point  2 :   0.3333 0.0000 0.0000  plane waves:    6358
 k-point  3 :   0.0000 0.2000 0.0000  plane waves:    6353
 k-point  4 :   0.3333 0.2000 0.0000  plane waves:    6357
 k-point  5 :  -0.3333 0.2000 0.0000  plane waves:    6357
 k-point  6 :   0.0000 0.4000 0.0000  plane waves:    6363
 k-point  7 :   0.3333 0.4000 0.0000  plane waves:    6345
 k-point  8 :  -0.3333 0.4000 0.0000  plane waves:    6345
 k-point  9 :   0.0000 0.0000 0.1667  plane waves:    6350
 k-point 10 :   0.3333 0.0000 0.1667  plane waves:    6358
 k-point 11 :  -0.3333 0.0000 0.1667  plane waves:    6358
 k-point 12 :   0.0000 0.2000 0.1667  plane waves:    6352
 k-point 13 :   0.3333 0.2000 0.1667  plane waves:    6350
 k-point 14 :  -0.3333 0.2000 0.1667  plane waves:    6350
 k-point 15 :   0.0000 0.4000 0.1667  plane waves:    6341
 k-point 16 :   0.3333 0.4000 0.1667  plane waves:    6345
 k-point 17 :  -0.3333 0.4000 0.1667  plane waves:    6345
 k-point 18 :   0.0000-0.4000 0.1667  plane waves:    6341
 k-point 19 :   0.3333-0.4000 0.1667  plane waves:    6345
 k-point 20 :  -0.3333-0.4000 0.1667  plane waves:    6345
 k-point 21 :   0.0000-0.2000 0.1667  plane waves:    6352
 k-point 22 :   0.3333-0.2000 0.1667  plane waves:    6350
 k-point 23 :  -0.3333-0.2000 0.1667  plane waves:    6350
 k-point 24 :   0.0000 0.0000 0.3333  plane waves:    6354
 k-point 25 :   0.3333 0.0000 0.3333  plane waves:    6370
 k-point 26 :  -0.3333 0.0000 0.3333  plane waves:    6370
 k-point 27 :   0.0000 0.2000 0.3333  plane waves:    6373
 k-point 28 :   0.3333 0.2000 0.3333  plane waves:    6365
 k-point 29 :  -0.3333 0.2000 0.3333  plane waves:    6365
 k-point 30 :   0.0000 0.4000 0.3333  plane waves:    6345
 k-point 31 :   0.3333 0.4000 0.3333  plane waves:    6357
 k-point 32 :  -0.3333 0.4000 0.3333  plane waves:    6357
 k-point 33 :   0.0000-0.4000 0.3333  plane waves:    6345
 k-point 34 :   0.3333-0.4000 0.3333  plane waves:    6357
 k-point 35 :  -0.3333-0.4000 0.3333  plane waves:    6357
 k-point 36 :   0.0000-0.2000 0.3333  plane waves:    6373
 k-point 37 :   0.3333-0.2000 0.3333  plane waves:    6365
 k-point 38 :  -0.3333-0.2000 0.3333  plane waves:    6365
 k-point 39 :   0.0000 0.0000 0.5000  plane waves:    6372
 k-point 40 :   0.3333 0.0000 0.5000  plane waves:    6374
 k-point 41 :   0.0000 0.2000 0.5000  plane waves:    6368
 k-point 42 :   0.3333 0.2000 0.5000  plane waves:    6380
 k-point 43 :  -0.3333 0.2000 0.5000  plane waves:    6380
 k-point 44 :   0.0000 0.4000 0.5000  plane waves:    6344
 k-point 45 :   0.3333 0.4000 0.5000  plane waves:    6368
 k-point 46 :  -0.3333 0.4000 0.5000  plane waves:    6368

 maximum and minimum number of plane-waves per node :       452      384

 maximum number of plane-waves:      6383
 maximum index in each direction: 
   IXMAX=   18   IYMAX=   10   IZMAX=    8
   IXMIN=  -18   IYMIN=  -10   IZMIN=   -8

 WARNING: aliasing errors must be expected set NGX to  74 to avoid them
 WARNING: aliasing errors must be expected set NGY to  42 to avoid them
 WARNING: aliasing errors must be expected set NGZ to  34 to avoid them
 aliasing errors are usually negligible using standard VASP settings
 and one can safely disregard these warnings

 real space projection operators:
  total allocation   :       2254.38 KBytes
  max/ min on nodes  :        161.88        134.41


 parallel 3D FFT for wavefunctions:
    minimum data exchange during FFTs selected (reduces bandwidth)
 parallel 3D FFT for charge:
    minimum data exchange during FFTs selected (reduces bandwidth)


 total amount of memory used by VASP on root node    66063. kBytes
========================================================================

   base      :      30000. kBytes
   nonlr-proj:        921. kBytes
   fftplans  :        927. kBytes
   grid      :       1951. kBytes
   one-center:         31. kBytes
   wavefun   :      32233. kBytes
 
     INWAV:  cpu time    0.0000: real time    0.0001
 Broyden mixing: mesh for mixing (old mesh)
   NGX = 35   NGY = 21   NGZ = 17
  (NGX  =108   NGY  = 64   NGZ  = 48)
  gives a total of  12495 points

 initial charge density was supplied:
 charge density of overlapping atoms calculated
 number of electron     151.0000000 magnetization 
 keeping initial charge density in first step


--------------------------------------------------------------------------------------------------------


 Maximum index for non-local projection operator          162
 Maximum index for augmentation-charges          608 (set IRDMAX)


--------------------------------------------------------------------------------------------------------


 First call to EWALD:  gamma=   0.264
 Maximum number of real-space cells 2x 3x 4
 Maximum number of reciprocal cells 4x 3x 2

 FEWALD executed in parallel
    FEWALD:  cpu time    0.0021: real time    0.0024


----------------------------------------- Iteration    1(   1)  ---------------------------------------


    POTLOK:  cpu time    0.0149: real time    0.0151
    SETDIJ:  cpu time    0.0039: real time    0.0039
     EDDAV:  cpu time    4.5931: real time    4.5908
       DOS:  cpu time    0.0138: real time    0.0138
    --------------------------------------------
      LOOP:  cpu time    4.6280: real time    4.6825

 eigenvalue-minimisations  :  8740
 total energy-change (2. order) : 0.1694902E+04  (-0.6222617E+04)
 number of electron     151.0000000 magnetization 
 augmentation part      151.0000000 magnetization 

 Free energy of the ion-electron system (eV)
  ---------------------------------------------------
  alpha Z        PSCENC =       401.59370410
  Ewald energy   TEWEN  =     -7268.20416853
  -Hartree energ DENC   =     -2983.05899370
  -exchange      EXHF   =         0.00000000
  -V(xc)+E(xc)   XCENC  =       463.19708116
  PAW double counting   =      6060.85387329    -6071.66291187
  entropy T*S    EENTRO =         0.00051783
  eigenvalues    EBANDS =      1076.91744958
  atomic energy  EATOM  =     10015.26539877
  Solvation  Ediel_sol  =         0.00000000
  ---------------------------------------------------
  free energy    TOTEN  =      1694.90195064 eV

  energy without entropy =     1694.90143281  energy(sigma->0) =     1694.90182119


--------------------------------------------------------------------------------------------------------




----------------------------------------- Iteration    1(   2)  ---------------------------------------


     EDDAV:  cpu time    4.8431: real time    4.8406
       DOS:  cpu time    0.0188: real time    0.0188
    --------------------------------------------
      LOOP:  cpu time    4.8628: real time    4.9439

 eigenvalue-minimisations  :  9377
 total energy-change (2. order) :-0.1622402E+04  (-0.1489211E+04)
 number of electron     151.0000000 magnetization 
 augmentation part      151.0000000 magnetization 

 Free energy of the ion-electron system (eV)
  ---------------------------------------------------
  alpha Z        PSCENC =       401.59370410
  Ewald energy   TEWEN  =     -7268.20416853
  -Hartree energ DENC   =     -2983.05899370
  -exchange      EXHF   =         0.00000000
  -V(xc)+E(xc)   XCENC  =       463.19708116
  PAW double counting   =      6060.85387329    -6071.66291187
  entropy T*S    EENTRO =        -0.00553068
  eigenvalues    EBANDS =      -545.47883809
  atomic energy  EATOM  =     10015.26539877
  Solvation  Ediel_sol  =         0.00000000
  ---------------------------------------------------
  free energy    TOTEN  =        72.49961446 eV

  energy without entropy =       72.50514514  energy(sigma->0) =       72.50099713


--------------------------------------------------------------------------------------------------------




----------------------------------------- Iteration    1(   3)  ---------------------------------------


     EDDAV:  cpu time    5.1158: real time    5.1134
       DOS:  cpu time    0.0201: real time    0.0200
    --------------------------------------------
      LOOP:  cpu time    5.1369: real time    5.2223

 eigenvalue-minimisations  : 10034
 total energy-change (2. order) :-0.2709078E+03  (-0.2617077E+03)
 number of electron     151.0000000 magnetization 
 augmentation part      151.0000000 magnetization 

 Free energy of the ion-electron system (eV)
  ---------------------------------------------------
  alpha Z        PSCENC =       401.59370410
  Ewald energy   TEWEN  =     -7268.20416853
  -Hartree energ DENC   =     -2983.05899370
  -exchange      EXHF   =         0.00000000
  -V(xc)+E(xc)   XCENC  =       463.19708116
  PAW double counting   =      6060.85387329    -6071.66291187
  entropy T*S    EENTRO =         0.03649514
  eigenvalues    EBANDS =      -816.42862992
  atomic energy  EATOM  =     10015.26539877
  Solvation  Ediel_sol  =         0.00000000
  ---------------------------------------------------
  free energy    TOTEN  =      -198.40815155 eV

  energy without entropy =     -198.44464669  energy(sigma->0) =     -198.41727534


--------------------------------------------------------------------------------------------------------




----------------------------------------- Iteration    1(   4)  ---------------------------------------


     EDDAV:  cpu time    5.8876: real time    5.8845
       DOS:  cpu time    0.0207: real time    0.0207
    --------------------------------------------
      LOOP:  cpu time    5.9095: real time    5.9971

 eigenvalue-minimisations  : 11976
 total energy-change (2. order) :-0.1561586E+02  (-0.1521820E+02)
 number of electron     151.0000000 magnetization 
 augmentation part      151.0000000 magnetization 

 Free energy of the ion-electron system (eV)
  ---------------------------------------------------
  alpha Z        PSCENC =       401.59370410
  Ewald energy   TEWEN  =     -7268.20416853
  -Hartree energ DENC   =     -2983.05899370
  -exchange      EXHF   =         0.00000000
  -V(xc)+E(xc)   XCENC  =       463.19708116
  PAW double counting   =      6060.85387329    -6071.66291187
  entropy T*S    EENTRO =         0.00055140
  eigenvalues    EBANDS =      -832.00854278
  atomic energy  EATOM  =     10015.26539877
  Solvation  Ediel_sol  =         0.00000000
  ---------------------------------------------------
  free energy    TOTEN  =      -214.02400815 eV

  energy without entropy =     -214.02455955  energy(sigma->0) =     -214.02414600


--------------------------------------------------------------------------------------------------------




----------------------------------------- Iteration    1(   5)  ---------------------------------------


     EDDAV:  cpu time    6.2111: real time    6.2080
       DOS:  cpu time    0.0209: real time    0.0209
    CHARGE:  cpu time    0.2930: real time    0.2929
    MIXING:  cpu time    0.0007: real time    0.0008
    --------------------------------------------
      LOOP:  cpu time    6.5270: real time    6.6465

 eigenvalue-minimisations  : 12736
 total energy-change (2. order) :-0.6397626E+00  (-0.6360388E+00)
 number of electron     150.9999898 magnetization 
 augmentation part       24.9227368 magnetization 

 Broyden mixing:
  rms(total) = 0.35792E+01    rms(broyden)= 0.35748E+01
  rms(prec ) = 0.47149E+01
  weight for this iteration     100.00

 Free energy of the ion-electron system (eV)
  ---------------------------------------------------
  alpha Z        PSCENC =       401.59370410
  Ewald energy   TEWEN  =     -7268.20416853
  -Hartree energ DENC   =     -2983.05899370
  -exchange      EXHF   =         0.00000000
  -V(xc)+E(xc)   XCENC  =       463.19708116
  PAW double counting   =      6060.85387329    -6071.66291187
  entropy T*S    EENTRO =         0.00193472
  eigenvalues    EBANDS =      -832.64968866
  atomic energy  EATOM  =     10015.26539877
  Solvation  Ediel_sol  =         0.00000000
  ---------------------------------------------------
  free energy    TOTEN  =      -214.66377071 eV

  energy without entropy =     -214.66570543  energy(sigma->0) =     -214.66425439


--------------------------------------------------------------------------------------------------------




----------------------------------------- Iteration    1(   6)  ---------------------------------------


    POTLOK:  cpu time    0.0142: real time    0.0142
    SETDIJ:  cpu time    0.0038: real time    0.0038
     EDDAV:  cpu time    5.8455: real time    5.8426
       DOS:  cpu time    0.0210: real time    0.0210
    CHARGE:  cpu time    0.2639: real time    0.2640
    MIXING:  cpu time    0.0007: real time    0.0007
    --------------------------------------------
      LOOP:  cpu time    6.1497: real time    6.2363

 eigenvalue-minimisations  : 11896
 total energy-change (2. order) : 0.1687076E+02  (-0.2105034E+02)
 number of electron     150.9999883 magnetization 
 augmentation part       30.8591320 magnetization 

 Broyden mixing:
  rms(total) = 0.45372E+01    rms(broyden)= 0.45349E+01
  rms(prec ) = 0.62645E+01
  weight for this iteration     100.00

 eigenvalues of (default mixing * dielectric matrix)
  average eigenvalue GAMMA=   0.4326
  0.4326

 Free energy of the ion-electron system (eV)
  ---------------------------------------------------
  alpha Z        PSCENC =       401.59370410
  Ewald energy   TEWEN  =     -7268.20416853
  -Hartree energ DENC   =     -3122.63881736
  -exchange      EXHF   =         0.00000000
  -V(xc)+E(xc)   XCENC  =       476.54882563
  PAW double counting   =      6562.63581533    -6562.23007936
  entropy T*S    EENTRO =        -0.00746013
  eigenvalues    EBANDS =      -700.75623105
  atomic energy  EATOM  =     10015.26539877
  Solvation  Ediel_sol  =         0.00000000
  ---------------------------------------------------
  free energy    TOTEN  =      -197.79301259 eV

  energy without entropy =     -197.78555246  energy(sigma->0) =     -197.79114756


--------------------------------------------------------------------------------------------------------




----------------------------------------- Iteration    1(   7)  ---------------------------------------


    POTLOK:  cpu time    0.0142: real time    0.0142
    SETDIJ:  cpu time    0.0038: real time    0.0038
     EDDAV:  cpu time    6.1682: real time    6.1650
       DOS:  cpu time    0.0209: real time    0.0209
    CHARGE:  cpu time    0.2982: real time    0.2979
    MIXING:  cpu time    0.0007: real time    0.0007
    --------------------------------------------
      LOOP:  cpu time    6.5066: real time    6.5840

 eigenvalue-minimisations  : 12664
 total energy-change (2. order) : 0.6299472E+01  (-0.1500340E+02)
 number of electron     150.9999845 magnetization 
 augmentation part       24.2840510 magnetization 

 Broyden mixing:
  rms(total) = 0.51550E+01    rms(broyden)= 0.51541E+01
  rms(prec ) = 0.77077E+01
  weight for this iteration     100.00

 eigenvalues of (default mixing * dielectric matrix)
  average eigenvalue GAMMA=   0.2885
  0.4635  0.1135

 Free energy of the ion-electron system (eV)
  ---------------------------------------------------
  alpha Z        PSCENC =       401.59370410
  Ewald energy   TEWEN  =     -7268.20416853
  -Hartree energ DENC   =     -3144.79973509
  -exchange      EXHF   =         0.00000000
  -V(xc)+E(xc)   XCENC  =       476.06802020
  PAW double counting   =      6698.40096465    -6714.49493376
  entropy T*S    EENTRO =        -0.04977798
  eigenvalues    EBANDS =      -655.27301306
  atomic energy  EATOM  =     10015.26539877
  Solvation  Ediel_sol  =         0.00000000
  ---------------------------------------------------
  free energy    TOTEN  =      -191.49354070 eV

  energy without entropy =     -191.44376272  energy(sigma->0) =     -191.48109620


--------------------------------------------------------------------------------------------------------




----------------------------------------- Iteration    1(   8)  ---------------------------------------


    POTLOK:  cpu time    0.0140: real time    0.0140
    SETDIJ:  cpu time    0.0038: real time    0.0038
     EDDAV:  cpu time    6.3461: real time    6.3429
       DOS:  cpu time    0.0205: real time    0.0205
    CHARGE:  cpu time    0.2965: real time    0.2965
    MIXING:  cpu time    0.0007: real time    0.0007
    --------------------------------------------
      LOOP:  cpu time    6.6822: real time    6.7790

 eigenvalue-minimisations  : 13136
 total energy-change (2. order) :-0.1029689E+02  (-0.1261849E+02)
 number of electron     150.9999838 magnetization 
 augmentation part       24.5898645 magnetization 

 Broyden mixing:
  rms(total) = 0.58012E+01    rms(broyden)= 0.58008E+01
  rms(prec ) = 0.87610E+01
  weight for this iteration     100.00

 eigenvalues of (default mixing * dielectric matrix)
  average eigenvalue GAMMA=   0.4143
  0.8675  0.3312  0.0442

 Free energy of the ion-electron system (eV)
  ---------------------------------------------------
  alpha Z        PSCENC =       401.59370410
  Ewald energy   TEWEN  =     -7268.20416853
  -Hartree energ DENC   =     -3145.03803217
  -exchange      EXHF   =         0.00000000
  -V(xc)+E(xc)   XCENC  =       476.12427526
  PAW double counting   =      6712.08973833    -6728.18110887
  entropy T*S    EENTRO =        -0.09469986
  eigenvalues    EBANDS =      -665.34553478
  atomic energy  EATOM  =     10015.26539877
  Solvation  Ediel_sol  =         0.00000000
  ---------------------------------------------------
  free energy    TOTEN  =      -201.79042775 eV

  energy without entropy =     -201.69572789  energy(sigma->0) =     -201.76675278


--------------------------------------------------------------------------------------------------------




----------------------------------------- Iteration    1(   9)  ---------------------------------------


    POTLOK:  cpu time    0.0139: real time    0.0139
    SETDIJ:  cpu time    0.0038: real time    0.0038
     EDDAV:  cpu time    6.1989: real time    6.1957
       DOS:  cpu time    0.0223: real time    0.0223
    CHARGE:  cpu time    0.3050: real time    0.3048
    MIXING:  cpu time    0.0008: real time    0.0008
    --------------------------------------------
      LOOP:  cpu time    6.5452: real time    6.6298

 eigenvalue-minimisations  : 12792
 total energy-change (2. order) : 0.1501446E+02  (-0.3021740E+01)
 number of electron     150.9999926 magnetization 
 augmentation part       24.7513738 magnetization 

 Broyden mixing:
  rms(total) = 0.13903E+01    rms(broyden)= 0.13850E+01
  rms(prec ) = 0.18846E+01
  weight for this iteration     100.00

 eigenvalues of (default mixing * dielectric matrix)
  average eigenvalue GAMMA=   0.4287
  1.0079  0.3312  0.3312  0.0447

 Free energy of the ion-electron system (eV)
  ---------------------------------------------------
  alpha Z        PSCENC =       401.59370410
  Ewald energy   TEWEN  =     -7268.20416853
  -Hartree energ DENC   =     -3151.83315553
  -exchange      EXHF   =         0.00000000
  -V(xc)+E(xc)   XCENC  =       477.16832813
  PAW double counting   =      6804.81315980    -6820.05272254
  entropy T*S    EENTRO =         0.01062011
  eigenvalues    EBANDS =      -645.53713220
  atomic energy  EATOM  =     10015.26539877
  Solvation  Ediel_sol  =         0.00000000
  ---------------------------------------------------
  free energy    TOTEN  =      -186.77596788 eV

  energy without entropy =     -186.78658799  energy(sigma->0) =     -186.77862291


--------------------------------------------------------------------------------------------------------




----------------------------------------- Iteration    1(  10)  ---------------------------------------


    POTLOK:  cpu time    0.0142: real time    0.0142
    SETDIJ:  cpu time    0.0038: real time    0.0038
     EDDAV:  cpu time    6.2573: real time    6.2540
       DOS:  cpu time    0.0214: real time    0.0214
    CHARGE:  cpu time    0.2887: real time    0.2886
    MIXING:  cpu time    0.0008: real time    0.0008
    --------------------------------------------
      LOOP:  cpu time    6.5869: real time    6.6883

 eigenvalue-minimisations  : 12904
 total energy-change (2. order) : 0.2026044E+01  (-0.1631044E+00)
 number of electron     150.9999915 magnetization 
 augmentation part       24.9185994 magnetization 

 Broyden mixing:
  rms(total) = 0.13689E+01    rms(broyden)= 0.13687E+01
  rms(prec ) = 0.20108E+01
  weight for this iteration     100.00

 eigenvalues of (default mixing * dielectric matrix)
  average eigenvalue GAMMA=   0.5675
  0.8785  0.8785  0.6731  0.3625  0.0446

 Free energy of the ion-electron system (eV)
  ---------------------------------------------------
  alpha Z        PSCENC =       401.59370410
  Ewald energy   TEWEN  =     -7268.20416853
  -Hartree energ DENC   =     -3152.25555859
  -exchange      EXHF   =         0.00000000
  -V(xc)+E(xc)   XCENC  =       477.52063827
  PAW double counting   =      6845.13870153    -6861.32898764
  entropy T*S    EENTRO =         0.01488912
  eigenvalues    EBANDS =      -642.49454117
  atomic energy  EATOM  =     10015.26539877
  Solvation  Ediel_sol  =         0.00000000
  ---------------------------------------------------
  free energy    TOTEN  =      -184.74992413 eV

  energy without entropy =     -184.76481325  energy(sigma->0) =     -184.75364641


--------------------------------------------------------------------------------------------------------




----------------------------------------- Iteration    1(  11)  ---------------------------------------


    POTLOK:  cpu time    0.0141: real time    0.0141
    SETDIJ:  cpu time    0.0039: real time    0.0038
     EDDAV:  cpu time    7.1114: real time    7.1077
       DOS:  cpu time    0.0204: real time    0.0203
    CHARGE:  cpu time    0.2865: real time    0.2865
    MIXING:  cpu time    0.0008: real time    0.0008
    --------------------------------------------
      LOOP:  cpu time    7.4375: real time    7.5087

 eigenvalue-minimisations  : 14896
 total energy-change (2. order) : 0.5867939E+00  (-0.2905615E+00)
 number of electron     150.9999919 magnetization 
 augmentation part       25.2509352 magnetization 

 Broyden mixing:
  rms(total) = 0.10579E+01    rms(broyden)= 0.10575E+01
  rms(prec ) = 0.14466E+01
  weight for this iteration     100.00

 eigenvalues of (default mixing * dielectric matrix)
  average eigenvalue GAMMA=   0.6386
  1.4575  0.9365  0.6923  0.0446  0.3505  0.3505

 Free energy of the ion-electron system (eV)
  ---------------------------------------------------
  alpha Z        PSCENC =       401.59370410
  Ewald energy   TEWEN  =     -7268.20416853
  -Hartree energ DENC   =     -3147.49236223
  -exchange      EXHF   =         0.00000000
  -V(xc)+E(xc)   XCENC  =       477.64418271
  PAW double counting   =      6890.21553156    -6904.78795003
  entropy T*S    EENTRO =         0.02328641
  eigenvalues    EBANDS =      -648.42075296
  atomic energy  EATOM  =     10015.26539877
  Solvation  Ediel_sol  =         0.00000000
  ---------------------------------------------------
  free energy    TOTEN  =      -184.16313019 eV

  energy without entropy =     -184.18641660  energy(sigma->0) =     -184.16895179


--------------------------------------------------------------------------------------------------------




----------------------------------------- Iteration    1(  12)  ---------------------------------------


    POTLOK:  cpu time    0.0139: real time    0.0139
    SETDIJ:  cpu time    0.0038: real time    0.0038
     EDDAV:  cpu time    6.2905: real time    6.2874
       DOS:  cpu time    0.0211: real time    0.0210
    CHARGE:  cpu time    0.2714: real time    0.2712
    MIXING:  cpu time    0.0008: real time    0.0008
    --------------------------------------------
      LOOP:  cpu time    6.6020: real time    6.6762

 eigenvalue-minimisations  : 12936
 total energy-change (2. order) : 0.3337974E+00  (-0.9128452E-01)
 number of electron     150.9999919 magnetization 
 augmentation part       25.4941683 magnetization 

 Broyden mixing:
  rms(total) = 0.80625E+00    rms(broyden)= 0.80617E+00
  rms(prec ) = 0.11405E+01
  weight for this iteration     100.00

 eigenvalues of (default mixing * dielectric matrix)
  average eigenvalue GAMMA=   0.7617
  2.2361  0.9360  0.6361  0.6361  0.4436  0.3993  0.0446

 Free energy of the ion-electron system (eV)
  ---------------------------------------------------
  alpha Z        PSCENC =       401.59370410
  Ewald energy   TEWEN  =     -7268.20416853
  -Hartree energ DENC   =     -3149.25408094
  -exchange      EXHF   =         0.00000000
  -V(xc)+E(xc)   XCENC  =       478.14518481
  PAW double counting   =      6938.22020254    -6952.93148774
  entropy T*S    EENTRO =         0.03131702
  eigenvalues    EBANDS =      -646.69540279
  atomic energy  EATOM  =     10015.26539877
  Solvation  Ediel_sol  =         0.00000000
  ---------------------------------------------------
  free energy    TOTEN  =      -183.82933276 eV

  energy without entropy =     -183.86064978  energy(sigma->0) =     -183.83716201


--------------------------------------------------------------------------------------------------------




----------------------------------------- Iteration    1(  13)  ---------------------------------------


    POTLOK:  cpu time    0.0139: real time    0.0139
    SETDIJ:  cpu time    0.0038: real time    0.0038
     EDDAV:  cpu time    6.4766: real time    6.4733
       DOS:  cpu time    0.0210: real time    0.0210
    CHARGE:  cpu time    0.2719: real time    0.2717
    MIXING:  cpu time    0.0009: real time    0.0009
    --------------------------------------------
      LOOP:  cpu time    6.7887: real time    6.8903

 eigenvalue-minimisations  : 13392
 total energy-change (2. order) : 0.5494832E-01  (-0.3491428E-01)
 number of electron     150.9999917 magnetization 
 augmentation part       25.5998322 magnetization 

 Broyden mixing:
  rms(total) = 0.45898E+00    rms(broyden)= 0.45881E+00
  rms(prec ) = 0.62592E+00
  weight for this iteration     100.00

 eigenvalues of (default mixing * dielectric matrix)
  average eigenvalue GAMMA=   0.7682
  2.3476  1.0268  0.6830  0.6830  0.0446  0.6105  0.3751  0.3751

 Free energy of the ion-electron system (eV)
  ---------------------------------------------------
  alpha Z        PSCENC =       401.59370410
  Ewald energy   TEWEN  =     -7268.20416853
  -Hartree energ DENC   =     -3151.42676283
  -exchange      EXHF   =         0.00000000
  -V(xc)+E(xc)   XCENC  =       478.59585069
  PAW double counting   =      6978.07320874    -6993.22419728
  entropy T*S    EENTRO =         0.02654232
  eigenvalues    EBANDS =      -644.47396043
  atomic energy  EATOM  =     10015.26539877
  Solvation  Ediel_sol  =         0.00000000
  ---------------------------------------------------
  free energy    TOTEN  =      -183.77438444 eV

  energy without entropy =     -183.80092676  energy(sigma->0) =     -183.78102002


--------------------------------------------------------------------------------------------------------




----------------------------------------- Iteration    1(  14)  ---------------------------------------


    POTLOK:  cpu time    0.0139: real time    0.0139
    SETDIJ:  cpu time    0.0038: real time    0.0038
     EDDAV:  cpu time    6.2079: real time    6.2048
       DOS:  cpu time    0.0205: real time    0.0205
    CHARGE:  cpu time    0.2725: real time    0.2722
    MIXING:  cpu time    0.0001: real time    0.0011
    --------------------------------------------
      LOOP:  cpu time    6.5202: real time    6.6264

 eigenvalue-minimisations  : 12752
 total energy-change (2. order) : 0.1112112E-01  (-0.6382999E-02)
 number of electron     150.9999919 magnetization 
 augmentation part       25.5747585 magnetization 

 Broyden mixing:
  rms(total) = 0.36858E+00    rms(broyden)= 0.36857E+00
  rms(prec ) = 0.51362E+00
  weight for this iteration     100.00

 eigenvalues of (default mixing * dielectric matrix)
  average eigenvalue GAMMA=   0.8571
  2.4521  1.4025  0.9519  0.8082  0.8082  0.0446  0.4013  0.4227  0.4227

 Free energy of the ion-electron system (eV)
  ---------------------------------------------------
  alpha Z        PSCENC =       401.59370410
  Ewald energy   TEWEN  =     -7268.20416853
  -Hartree energ DENC   =     -3151.55232662
  -exchange      EXHF   =         0.00000000
  -V(xc)+E(xc)   XCENC  =       478.66730582
  PAW double counting   =      6984.40797043    -6999.94476570
  entropy T*S    EENTRO =         0.02567304
  eigenvalues    EBANDS =      -644.02205464
  atomic energy  EATOM  =     10015.26539877
  Solvation  Ediel_sol  =         0.00000000
  ---------------------------------------------------
  free energy    TOTEN  =      -183.76326332 eV

  energy without entropy =     -183.78893636  energy(sigma->0) =     -183.76968158


--------------------------------------------------------------------------------------------------------




----------------------------------------- Iteration    1(  15)  ---------------------------------------


    POTLOK:  cpu time    0.0136: real time    0.0144
    SETDIJ:  cpu time    0.0039: real time    0.0039
     EDDAV:  cpu time    6.2073: real time    6.2040
       DOS:  cpu time    0.0201: real time    0.0210
    CHARGE:  cpu time    0.2702: real time    0.2701
    MIXING:  cpu time    0.0010: real time    0.0010
    --------------------------------------------
      LOOP:  cpu time    6.5182: real time    6.6022

 eigenvalue-minimisations  : 12760
 total energy-change (2. order) :-0.1541378E-01  (-0.7742816E-02)
 number of electron     150.9999918 magnetization 
 augmentation part       25.5214886 magnetization 

 Broyden mixing:
  rms(total) = 0.20423E+00    rms(broyden)= 0.20414E+00
  rms(prec ) = 0.26348E+00
  weight for this iteration     100.00

 eigenvalues of (default mixing * dielectric matrix)
  average eigenvalue GAMMA=   0.8968
  2.6248  1.3549  1.3549  0.8876  0.8876  0.0446  0.5234  0.5234  0.3837  0.3837

 Free energy of the ion-electron system (eV)
  ---------------------------------------------------
  alpha Z        PSCENC =       401.59370410
  Ewald energy   TEWEN  =     -7268.20416853
  -Hartree energ DENC   =     -3151.71680480
  -exchange      EXHF   =         0.00000000
  -V(xc)+E(xc)   XCENC  =       478.74946049
  PAW double counting   =      6988.19742463    -7004.09515187
  entropy T*S    EENTRO =         0.02296228
  eigenvalues    EBANDS =      -643.59150217
  atomic energy  EATOM  =     10015.26539877
  Solvation  Ediel_sol  =         0.00000000
  ---------------------------------------------------
  free energy    TOTEN  =      -183.77867710 eV

  energy without entropy =     -183.80163938  energy(sigma->0) =     -183.78441767


--------------------------------------------------------------------------------------------------------




----------------------------------------- Iteration    1(  16)  ---------------------------------------


    POTLOK:  cpu time    0.0141: real time    0.0141
    SETDIJ:  cpu time    0.0038: real time    0.0038
     EDDAV:  cpu time    5.8278: real time    5.8246
       DOS:  cpu time    0.0210: real time    0.0210
    CHARGE:  cpu time    0.2702: real time    0.2702
    MIXING:  cpu time    0.0011: real time    0.0011
    --------------------------------------------
      LOOP:  cpu time    6.1386: real time    6.2474

 eigenvalue-minimisations  : 11792
 total energy-change (2. order) :-0.9637339E-02  (-0.9423676E-03)
 number of electron     150.9999919 magnetization 
 augmentation part       25.5211081 magnetization 

 Broyden mixing:
  rms(total) = 0.18799E+00    rms(broyden)= 0.18798E+00
  rms(prec ) = 0.25510E+00
  weight for this iteration     100.00

 eigenvalues of (default mixing * dielectric matrix)
  average eigenvalue GAMMA=   0.9579
  2.4387  2.3165  1.2906  0.0446  0.9056  0.9056  0.6984  0.6984  0.3947  0.3947
  0.4494

 Free energy of the ion-electron system (eV)
  ---------------------------------------------------
  alpha Z        PSCENC =       401.59370410
  Ewald energy   TEWEN  =     -7268.20416853
  -Hartree energ DENC   =     -3152.04909290
  -exchange      EXHF   =         0.00000000
  -V(xc)+E(xc)   XCENC  =       478.82842232
  PAW double counting   =      6989.16840922    -7005.13135851
  entropy T*S    EENTRO =         0.02409110
  eigenvalues    EBANDS =      -643.28372001
  atomic energy  EATOM  =     10015.26539877
  Solvation  Ediel_sol  =         0.00000000
  ---------------------------------------------------
  free energy    TOTEN  =      -183.78831444 eV

  energy without entropy =     -183.81240554  energy(sigma->0) =     -183.79433722


--------------------------------------------------------------------------------------------------------




----------------------------------------- Iteration    1(  17)  ---------------------------------------


    POTLOK:  cpu time    0.0139: real time    0.0139
    SETDIJ:  cpu time    0.0038: real time    0.0038
     EDDAV:  cpu time    6.1692: real time    6.1660
       DOS:  cpu time    0.0210: real time    0.0210
    CHARGE:  cpu time    0.2707: real time    0.2705
    MIXING:  cpu time    0.0012: real time    0.0012
    --------------------------------------------
      LOOP:  cpu time    6.4804: real time    6.5489

 eigenvalue-minimisations  : 12664
 total energy-change (2. order) :-0.6019377E-02  (-0.8775774E-03)
 number of electron     150.9999918 magnetization 
 augmentation part       25.5245336 magnetization 

 Broyden mixing:
  rms(total) = 0.13031E+00    rms(broyden)= 0.13029E+00
  rms(prec ) = 0.17606E+00
  weight for this iteration     100.00

 eigenvalues of (default mixing * dielectric matrix)
  average eigenvalue GAMMA=   0.9984
  3.0353  2.6431  1.2009  0.0446  0.9455  0.9455  0.7346  0.7346  0.3868  0.3868
  0.4613  0.4613

 Free energy of the ion-electron system (eV)
  ---------------------------------------------------
  alpha Z        PSCENC =       401.59370410
  Ewald energy   TEWEN  =     -7268.20416853
  -Hartree energ DENC   =     -3152.38628341
  -exchange      EXHF   =         0.00000000
  -V(xc)+E(xc)   XCENC  =       478.89836004
  PAW double counting   =      6988.57379107    -7004.46624892
  entropy T*S    EENTRO =         0.01991563
  eigenvalues    EBANDS =      -643.08880257
  atomic energy  EATOM  =     10015.26539877
  Solvation  Ediel_sol  =         0.00000000
  ---------------------------------------------------
  free energy    TOTEN  =      -183.79433382 eV

  energy without entropy =     -183.81424944  energy(sigma->0) =     -183.79931272


--------------------------------------------------------------------------------------------------------




----------------------------------------- Iteration    1(  18)  ---------------------------------------


    POTLOK:  cpu time    0.0139: real time    0.0139
    SETDIJ:  cpu time    0.0038: real time    0.0038
     EDDAV:  cpu time    6.3325: real time    6.3293
       DOS:  cpu time    0.0211: real time    0.0211
    CHARGE:  cpu time    0.2708: real time    0.2705
    MIXING:  cpu time    0.0012: real time    0.0012
    --------------------------------------------
      LOOP:  cpu time    6.6439: real time    6.7341

 eigenvalue-minimisations  : 13048
 total energy-change (2. order) :-0.3017817E-02  (-0.1400521E-03)
 number of electron     150.9999918 magnetization 
 augmentation part       25.5295144 magnetization 

 Broyden mixing:
  rms(total) = 0.99117E-01    rms(broyden)= 0.99114E-01
  rms(prec ) = 0.13545E+00
  weight for this iteration     100.00

 eigenvalues of (default mixing * dielectric matrix)
  average eigenvalue GAMMA=   1.0320
  3.5219  2.4606  1.3290  1.1661  0.0446  0.8349  0.8349  0.6571  0.6571  0.6691
  0.3918  0.3918  0.4571

 Free energy of the ion-electron system (eV)
  ---------------------------------------------------
  alpha Z        PSCENC =       401.59370410
  Ewald energy   TEWEN  =     -7268.20416853
  -Hartree energ DENC   =     -3152.49249677
  -exchange      EXHF   =         0.00000000
  -V(xc)+E(xc)   XCENC  =       478.94217585
  PAW double counting   =      6988.32547110    -7004.19192069
  entropy T*S    EENTRO =         0.01902091
  eigenvalues    EBANDS =      -643.05453637
  atomic energy  EATOM  =     10015.26539877
  Solvation  Ediel_sol  =         0.00000000
  ---------------------------------------------------
  free energy    TOTEN  =      -183.79735163 eV

  energy without entropy =     -183.81637254  energy(sigma->0) =     -183.80210686


--------------------------------------------------------------------------------------------------------




----------------------------------------- Iteration    1(  19)  ---------------------------------------


    POTLOK:  cpu time    0.0139: real time    0.0139
    SETDIJ:  cpu time    0.0038: real time    0.0038
     EDDAV:  cpu time    6.1980: real time    6.1948
       DOS:  cpu time    0.0211: real time    0.0211
    CHARGE:  cpu time    0.2701: real time    0.2701
    MIXING:  cpu time    0.0013: real time    0.0013
    --------------------------------------------
      LOOP:  cpu time    6.5088: real time    6.5962

 eigenvalue-minimisations  : 12712
 total energy-change (2. order) :-0.1723676E-02  (-0.1643387E-03)
 number of electron     150.9999918 magnetization 
 augmentation part       25.5356735 magnetization 

 Broyden mixing:
  rms(total) = 0.70271E-01    rms(broyden)= 0.70263E-01
  rms(prec ) = 0.97288E-01
  weight for this iteration     100.00

 eigenvalues of (default mixing * dielectric matrix)
  average eigenvalue GAMMA=   1.0995
  4.1873  2.4057  1.7557  1.1210  1.0011  1.0011  0.0446  0.7483  0.7483  0.6720
  0.3907  0.3907  0.4705  0.4555

 Free energy of the ion-electron system (eV)
  ---------------------------------------------------
  alpha Z        PSCENC =       401.59370410
  Ewald energy   TEWEN  =     -7268.20416853
  -Hartree energ DENC   =     -3152.49381208
  -exchange      EXHF   =         0.00000000
  -V(xc)+E(xc)   XCENC  =       478.97752045
  PAW double counting   =      6988.40736491    -7004.25209301
  entropy T*S    EENTRO =         0.01775094
  eigenvalues    EBANDS =      -643.11074088
  atomic energy  EATOM  =     10015.26539877
  Solvation  Ediel_sol  =         0.00000000
  ---------------------------------------------------
  free energy    TOTEN  =      -183.79907531 eV

  energy without entropy =     -183.81682625  energy(sigma->0) =     -183.80351304


--------------------------------------------------------------------------------------------------------




[...]
     61       0.7049      2.00000
     62       0.7791      2.00000
     63       0.9715      2.00000
     64       1.0675      2.00000
     65       3.2914      1.99052
     66       3.3362      1.99158
     67       3.3456      1.99291
     68       3.3708      1.99938
     69       3.4151      2.02366
     70       3.4383      2.04301
     71       3.4728      2.07574
     72       3.4849      2.08627
     73       3.5392      2.09683
     74       3.5592      2.07180
     75       3.6318      1.75523
     76       3.6464      1.64414
     77       4.0334     -0.00875
     78       4.0419     -0.00447
     79       4.2177      0.00384
     80       4.2474      0.00232
     81       4.5402      0.00000
     82       4.5895      0.00000
     83       4.7520      0.00000
     84       4.7955      0.00000
     85       9.1134      0.00000
     86       9.3496      0.00000
     87       9.5336      0.00000
     88       9.5613      0.00000
     89       9.8151      0.00000
     90       9.9507      0.00000
     91      10.0781      0.00000
     92      10.1917      0.00000
     93      10.3501      0.00000
     94      10.4806      0.00000
     95      10.5961      0.00000

 k-point    45 :       0.3333    0.4000    0.5000
  band No.  band energies     occupation 
      1     -18.7827      2.00000
      2     -18.7254      2.00000
      3     -18.4904      2.00000
      4     -18.4231      2.00000
      5     -16.7309      2.00000
      6     -16.7170      2.00000
      7     -16.4954      2.00000
      8     -16.4693      2.00000
      9     -16.3021      2.00000
     10     -16.2638      2.00000
     11     -16.2234      2.00000
     12     -16.1843      2.00000
     13     -16.1306      2.00000
     14     -16.0424      2.00000
     15     -15.9508      2.00000
     16     -15.8266      2.00000
     17      -6.0986      2.00000
     18      -6.0621      2.00000
     19      -5.9480      2.00000
     20      -5.9051      2.00000
     21      -3.9276      2.00000
     22      -3.9097      2.00000
     23      -3.8210      2.00000
     24      -3.7717      2.00000
     25      -3.7428      2.00000
     26      -3.6823      2.00000
     27      -3.6381      2.00000
     28      -3.5731      2.00000
     29      -3.3296      2.00000
     30      -3.2752      2.00000
     31      -3.0561      2.00000
     32      -2.9949      2.00000
     33      -2.5742      2.00000
     34      -2.4719      2.00000
     35      -2.3946      2.00000
     36      -2.3486      2.00000
     37      -1.9433      2.00000
     38      -1.8176      2.00000
     39      -1.6050      2.00000
     40      -1.4550      2.00000
     41      -1.3960      2.00000
     42      -1.3760      2.00000
     43      -1.3169      2.00000
     44      -1.1484      2.00000
     45      -1.0464      2.00000
     46      -0.9775      2.00000
     47      -0.8816      2.00000
     48      -0.8177      2.00000
     49      -0.5983      2.00000
     50      -0.5576      2.00000
     51      -0.3948      2.00000
     52      -0.2849      2.00000
     53      -0.0943      2.00000
     54      -0.0095      2.00000
     55       0.0579      2.00000
     56       0.1855      2.00000
     57       0.2788      2.00000
     58       0.4197      2.00000
     59       0.5797      2.00000
     60       0.6553      2.00000
     61       0.7279      2.00000
     62       0.7653      2.00000
     63       0.9575      2.00000
     64       1.0647      2.00000
     65       3.2999      1.99024
     66       3.3213      1.99040
     67       3.3590      1.99578
     68       3.3651      1.99752
     69       3.4212      2.02838
     70       3.4407      2.04522
     71       3.4692      2.07234
     72       3.4762      2.07879
     73       3.5429      2.09380
     74       3.5556      2.07787
     75       3.6195      1.83704
     76       3.6435      1.66731
     77       4.0164     -0.01914
     78       4.0526     -0.00005
     79       4.1815      0.00633
     80       4.2401      0.00264
     81       4.5430      0.00000
     82       4.6172      0.00000
     83       4.7539      0.00000
     84       4.7956      0.00000
     85       9.1155      0.00000
     86       9.3734      0.00000
     87       9.5051      0.00000
     88       9.6107      0.00000
     89       9.8421      0.00000
     90       9.9575      0.00000
     91      10.0137      0.00000
     92      10.1357      0.00000
     93      10.3383      0.00000
     94      10.6076      0.00000
     95      10.6612      0.00000

 k-point    46 :      -0.3333    0.4000    0.5000
  band No.  band energies     occupation 
      1     -18.7827      2.00000
      2     -18.7254      2.00000
      3     -18.4904      2.00000
      4     -18.4231      2.00000
      5     -16.7323      2.00000
      6     -16.7155      2.00000
      7     -16.4933      2.00000
      8     -16.4715      2.00000
      9     -16.3036      2.00000
     10     -16.2601      2.00000
     11     -16.2239      2.00000
     12     -16.1904      2.00000
     13     -16.1259      2.00000
     14     -16.0420      2.00000
     15     -15.9517      2.00000
     16     -15.8265      2.00000
     17      -6.0982      2.00000
     18      -6.0626      2.00000
     19      -5.9481      2.00000
     20      -5.9045      2.00000
     21      -3.9214      2.00000
     22      -3.8830      2.00000
     23      -3.8448      2.00000
     24      -3.8088      2.00000
     25      -3.7066      2.00000
     26      -3.6970      2.00000
     27      -3.6673      2.00000
     28      -3.5529      2.00000
     29      -3.3017      2.00000
     30      -3.2613      2.00000
     31      -3.0653      2.00000
     32      -3.0145      2.00000
     33      -2.5554      2.00000
     34      -2.5021      2.00000
     35      -2.3717      2.00000
     36      -2.3632      2.00000
     37      -1.9340      2.00000
     38      -1.8220      2.00000
     39      -1.6233      2.00000
     40      -1.4582      2.00000
     41      -1.4034      2.00000
     42      -1.3247      2.00000
     43      -1.2756      2.00000
     44      -1.2067      2.00000
     45      -0.9991      2.00000
     46      -0.9708      2.00000
     47      -0.9569      2.00000
     48      -0.8148      2.00000
     49      -0.5806      2.00000
     50      -0.5662      2.00000
     51      -0.4020      2.00000
     52      -0.2752      2.00000
     53      -0.0549      2.00000
     54      -0.0522      2.00000
     55       0.0348      2.00000
     56       0.2203      2.00000
     57       0.2949      2.00000
     58       0.3766      2.00000
     59       0.6139      2.00000
     60       0.6765      2.00000
     61       0.7049      2.00000
     62       0.7497      2.00000
     63       0.9638      2.00000
     64       1.0622      2.00000
     65       3.2993      1.99025
     66       3.3234      1.99051
     67       3.3520      1.99412
     68       3.3726      2.00003
     69       3.4160      2.02432
     70       3.4439      2.04820
     71       3.4666      2.06992
     72       3.4774      2.07986
     73       3.5436      2.09310
     74       3.5583      2.07344
     75       3.6165      1.85478
     76       3.6433      1.66930
     77       4.0148     -0.02026
     78       4.0581      0.00184
     79       4.1650      0.00757
     80       4.2522      0.00212
     81       4.5609      0.00000
     82       4.5970      0.00000
     83       4.7710      0.00000
     84       4.7829      0.00000
     85       9.1470      0.00000
     86       9.3413      0.00000
     87       9.4843      0.00000
     88       9.6102      0.00000
     89       9.8207      0.00000
     90       9.9946      0.00000
     91      10.0145      0.00000
     92      10.1767      0.00000
     93      10.3662      0.00000
     94      10.5208      0.00000
     95      10.5495      0.00000


--------------------------------------------------------------------------------------------------------


 soft charge-density along one line, spin component           1
         0         1         2         3         4         5         6         7         8         9
 total charge-density along one line
 
 pseudopotential strength for first ion, spin component:           1
  1.170  -0.045   0.000   0.000   0.000
 -0.045  -0.052  -0.000  -0.000  -0.000
  0.000  -0.000  -0.365   0.000   0.000
  0.000  -0.000   0.000  -0.365  -0.001
  0.000  -0.000   0.000  -0.001  -0.365
 total augmentation occupancy for first ion, spin component:           1
  0.487  -0.058   0.000   0.000   0.000
 -0.058   0.008   0.000   0.000   0.000
  0.000   0.000   0.050  -0.009  -0.012
  0.000   0.000  -0.009   0.062   0.002
  0.000   0.000  -0.012   0.002   0.052


------------------------ aborting loop because EDIFF is reached ----------------------------------------


    CHARGE:  cpu time    0.2716: real time    0.2714
    FORLOC:  cpu time    0.0048: real time    0.0048
    FORNL :  cpu time    1.2267: real time    1.2262
    STRESS:  cpu time    3.6750: real time    3.6730
    FORCOR:  cpu time    0.0165: real time    0.0165
    FORHAR:  cpu time    0.0073: real time    0.0073
    MIXING:  cpu time    0.0040: real time    0.0040
    OFIELD:  cpu time    0.0000: real time    0.0000

  FORCE on cell =-STRESS in cart. coord.  units (eV):
  Direction    XX          YY          ZZ          XY          YZ          ZX
  --------------------------------------------------------------------------------------
  Alpha Z   401.59370   401.59370   401.59370
  Ewald   -2471.80650 -2317.29238 -2319.69607  -121.14687   -31.40102   -59.57464
  Hartree   973.94233  1262.81309  1082.12010   -51.50274   -13.40342   -30.11455
  E(xc)    -715.05236  -714.82333  -715.37379    -0.12567    -0.09558     0.02845
  Local    -751.36127 -1211.83353  -997.84012   166.39322    41.68118    88.11058
  n-local  -307.34461  -319.05240  -307.27696    -1.47972    -0.02073     0.86562
  augment   222.24922   221.82811   223.33793     0.28166     0.55889    -0.89933
  Kinetic  2622.96299  2650.52962  2614.88756     8.01328     2.33251     2.02507
  Fock        0.00000     0.00000     0.00000     0.00000     0.00000     0.00000
  -------------------------------------------------------------------------------------
  Total     -24.81649   -26.23712   -18.24764     0.43317    -0.34817     0.44121
  in kB    -131.52435  -139.05353   -96.71029     2.29575    -1.84525     2.33837
  external pressure =     -122.43 kB  Pullay stress =        0.00 kB


 VOLUME and BASIS-vectors are now :
 -----------------------------------------------------------------------------
  energy-cutoff  :      441.00
  volume of cell :      302.30
      direct lattice vectors                 reciprocal lattice vectors
    10.450668000  0.000000000  0.000000000     0.095687663  0.000000000  0.000000000
     0.000000000  6.087351000  0.000000000     0.000000000  0.164275068  0.000000000
     0.000000000  0.000000000  4.751955000     0.000000000  0.000000000  0.210439703

  length of vectors
    10.450668000  6.087351000  4.751955000     0.095687663  0.164275068  0.210439703


 FORCES acting on ions
    electron-ion (+dipol)            ewald-force                    non-local-force                 convergence-correction
 -----------------------------------------------------------------------------------------------
   0.237E-05 0.915E-05 0.806E-05   -.257E-04 -.651E-04 -.424E-04   0.000E+00 0.000E+00 0.000E+00   0.973E-05 -.171E-06 -.738E-08
   -.706E-05 -.672E-05 -.160E-04   0.821E-04 0.443E-04 0.362E-04   0.000E+00 0.000E+00 0.000E+00   -.974E-05 0.173E-06 0.133E-07
   -.847E-05 0.838E-05 -.155E-04   0.959E-04 -.597E-04 0.275E-04   0.000E+00 0.000E+00 0.000E+00   -.975E-05 -.171E-06 0.104E-07
   0.113E+03 0.908E+01 -.896E+02   -.121E+03 -.878E+01 0.122E+03   0.756E+01 -.282E+00 -.322E+02   0.166E-02 -.452E-02 0.381E-02
   -.215E+02 0.110E+03 -.449E+02   0.109E+02 -.133E+03 0.577E+02   0.106E+02 0.230E+02 -.128E+02   -.315E-03 0.464E-02 0.122E-01
   -.335E+02 -.986E+02 -.429E+02   0.227E+02 0.121E+03 0.560E+02   0.108E+02 -.228E+02 -.131E+02   0.229E-02 -.235E-02 0.824E-02
   -.113E+03 -.908E+01 0.896E+02   0.121E+03 0.878E+01 -.122E+03   -.756E+01 0.282E+00 0.322E+02   -.154E-02 0.452E-02 -.381E-02
   -.672E+02 -.177E+02 -.101E+03   0.972E+02 0.176E+02 0.116E+03   -.300E+02 0.138E+00 -.150E+02   -.490E-02 0.544E-02 0.753E-02
   -.102E+03 0.568E+01 -.922E+02   0.107E+03 -.578E+01 0.124E+03   -.515E+01 0.967E-01 -.317E+02   0.627E-02 0.267E-03 -.504E-02
   0.335E+02 0.986E+02 0.429E+02   -.227E+02 -.121E+03 -.560E+02   -.108E+02 0.228E+02 0.131E+02   -.222E-02 0.235E-02 -.824E-02
   0.170E+02 -.105E+03 -.468E+02   -.346E+01 0.130E+03 0.604E+02   -.135E+02 -.250E+02 -.137E+02   -.115E-01 -.346E-03 -.497E-02
   -.170E+02 0.105E+03 0.468E+02   0.346E+01 -.130E+03 -.604E+02   0.135E+02 0.250E+02 0.137E+02   0.114E-01 0.347E-03 0.497E-02
   -.131E+02 -.974E+02 0.436E+02   0.382E+00 0.121E+03 -.570E+02   0.127E+02 -.239E+02 0.135E+02   0.634E-02 0.670E-02 0.132E-02
   0.672E+02 0.177E+02 0.101E+03   -.972E+02 -.176E+02 -.116E+03   0.300E+02 -.138E+00 0.150E+02   0.505E-02 -.544E-02 -.753E-02
   0.831E+02 -.426E+01 -.907E+02   -.113E+03 0.423E+01 0.103E+03   0.301E+02 0.262E-01 -.122E+02   0.131E-02 -.103E-05 -.624E-03
   -.831E+02 0.426E+01 0.907E+02   0.113E+03 -.423E+01 -.103E+03   -.301E+02 -.262E-01 0.122E+02   -.147E-02 0.103E-05 0.624E-03
   0.102E+03 -.568E+01 0.922E+02   -.107E+03 0.578E+01 -.124E+03   0.515E+01 -.967E-01 0.317E+02   -.639E-02 -.267E-03 0.504E-02
   0.131E+02 0.973E+02 -.436E+02   -.381E+00 -.121E+03 0.570E+02   -.127E+02 0.239E+02 -.135E+02   -.641E-02 -.670E-02 -.132E-02
   0.215E+02 -.110E+03 0.449E+02   -.109E+02 0.133E+03 -.577E+02   -.106E+02 -.230E+02 0.128E+02   0.389E-03 -.464E-02 -.122E-01
   0.402E+02 0.168E+02 -.123E+02   -.429E+02 -.164E+02 0.150E+02   0.267E+01 -.381E+00 -.261E+01   0.169E-02 -.385E-02 -.268E-02
   -.319E+02 0.319E+01 -.223E+02   0.331E+02 -.344E+01 0.228E+02   -.119E+01 0.254E+00 -.522E+00   0.207E-02 0.660E-03 -.623E-03
   0.319E+02 -.319E+01 0.223E+02   -.331E+02 0.344E+01 -.228E+02   0.119E+01 -.254E+00 0.522E+00   -.217E-02 -.660E-03 0.623E-03
   -.402E+02 -.168E+02 0.123E+02   0.429E+02 0.164E+02 -.150E+02   -.267E+01 0.381E+00 0.261E+01   -.159E-02 0.385E-02 0.268E-02
   -.643E+02 -.873E+01 -.250E+02   0.653E+02 0.792E+01 0.256E+02   -.990E+00 0.819E+00 -.591E+00   -.280E-02 -.281E-02 -.209E-03
   0.901E+02 0.451E+00 -.309E+02   -.877E+02 0.233E-01 0.318E+02   -.234E+01 -.493E+00 -.913E+00   -.205E-02 0.202E-02 -.281E-02
   -.901E+02 -.451E+00 0.309E+02   0.877E+02 -.228E-01 -.318E+02   0.234E+01 0.493E+00 0.913E+00   0.203E-02 -.202E-02 0.281E-02
   0.643E+02 0.873E+01 0.250E+02   -.653E+02 -.792E+01 -.256E+02   0.990E+00 -.819E+00 0.591E+00   0.284E-02 0.281E-02 0.210E-03
 -----------------------------------------------------------------------------------------------
   -.151E-01 -.136E-01 -.327E-01   0.711E-13 -.231E-13 0.284E-13   -.711E-14 0.355E-14 0.355E-14   -.382E-05 -.394E-06 -.921E-08
 
 
 POSITION                                       TOTAL-FORCE (eV/Angst)
 -----------------------------------------------------------------------------------
     -0.00000      3.04368      0.00000         0.000000      0.000000     -0.000000
      5.22533      3.04368      2.37598         0.000000      0.000000     -0.000000
      5.22533      0.00000      2.37598         0.000000      0.000000     -0.000000
      1.20571      1.58776      3.57939         0.001470      0.014201      0.020884
      8.64675      3.33838      3.46759        -0.010330     -0.013739     -0.017116
      8.57551      5.77157      3.37277        -0.011904     -0.019674     -0.019288
      9.24497      4.49959      1.17257        -0.001470     -0.014201     -0.020884
      0.42187      4.51117      3.12592         0.001768     -0.009742     -0.003658
      4.08366      4.57251      1.17947        -0.000412      0.000854     -0.002418
      1.87516      0.31579      1.37919         0.011904      0.019674      0.019288
      7.04354      2.75514      1.05386         0.005248     -0.000539     -0.006781
      3.40713      3.33221      3.69810        -0.005248      0.000539      0.006781
      3.39323      5.81229      3.71125        -0.010985      0.002368      0.005899
     10.02880      1.57618      1.62604        -0.001768      0.009742      0.003658
      4.83700      1.50870      0.89084         0.006278     -0.005674      0.001633
      5.61367      4.57865      3.86111        -0.006278      0.005674     -0.001633
      6.36701      1.51484      3.57249         0.000412     -0.000854      0.002418
      7.05743      0.27507      1.04071         0.010985     -0.002368     -0.005899
      1.80391      2.74897      1.28437         0.010330      0.013739      0.017116
      1.05926      1.52742      2.04533         0.011963      0.009238      0.009326
      4.13965      4.56835      4.37901        -0.003782      0.006924      0.014070
      6.31102      1.51900      0.37294         0.003782     -0.006924     -0.014070
      9.39140      4.55994      2.70662        -0.011963     -0.009238     -0.009326
      8.11619      1.48516      2.47691         0.002815      0.006620     -0.005263
      7.65638      4.59541      0.01881        -0.004149     -0.016419     -0.010100
      2.79429      1.49194      4.73315         0.004149      0.016419      0.010100
      2.33448      4.60220      2.27504        -0.002815     -0.006620      0.005263
 -----------------------------------------------------------------------------------
    total drift:                               -0.015138     -0.013600     -0.032737


--------------------------------------------------------------------------------------------------------



  FREE ENERGIE OF THE ION-ELECTRON SYSTEM (eV)
  ---------------------------------------------------
  free  energy   TOTEN  =      -185.32233382 eV

  energy  without entropy=     -185.31756244  energy(sigma->0) =     -185.32114098
 
 d Force = 0.1102388E-02[ 0.962E-03, 0.124E-02]  d Energy = 0.1099425E-02 0.296E-05
 d Force =-0.6863391E+00[-0.694E+00,-0.678E+00]  d Ewald  =-0.6863334E+00-0.570E-05


--------------------------------------------------------------------------------------------------------


    POTLOK:  cpu time    0.0184: real time    0.0184


--------------------------------------------------------------------------------------------------------


 Quasi-Newton relaxation of ions (Broydens 2nd method)
  g(Force)  = 0.347E-03   g(Stress)= 0.000E+00

 retain information from N=  5 steps
 eigenvalues of (default step * inverse Hessian matrix)
  average eigenvalue of G=   3.5886
 eigenvalue spectrum of G is  7.9521  7.9521  0.6913  0.6913  0.6563


--------------------------------------------------------------------------------------------------------


 writing wavefunctions
     LOOP+:  cpu time   27.6742: real time   31.6158
    4ORBIT:  cpu time    0.0000: real time    0.0000

 total amount of memory used by VASP on root node    66063. kBytes
========================================================================

   base      :      30000. kBytes
   nonlr-proj:        921. kBytes
   fftplans  :        927. kBytes
   grid      :       1951. kBytes
   one-center:         31. kBytes
   wavefun   :      32233. kBytes
 
  
  
 General timing and accounting informations for this job:
 ========================================================
  
                  Total CPU time used (sec):      963.210
                            User time (sec):      957.855
                          System time (sec):        5.355
                         Elapsed time (sec):      986.677
  
                   Maximum memory used (kb):      105372.
                   Average memory used (kb):           0.
  
                          Minor page faults:        79573
                          Major page faults:            0
                 Voluntary context switches:         5315
