phonopy:
  version: "2.37.0"
  frequency_unit_conversion_factor: 15.633302
  symmetry_tolerance: 1.00000e-05
  configuration:
    cell_filename: "1.POSCAR"
    dim: "1 1 1"
    read_force_constants: ".true."

physical_unit:
  atomic_mass: "AMU"
  length: "angstrom"
  force_constants: "eV/angstrom^2"

space_group:
  type: "Fm-3m"
  number: 225
  Hall_symbol: "-F 4 2 3"

supercell_matrix:
- [   1,   0,   0 ]
- [   0,   1,   0 ]
- [   0,   0,   1 ]

primitive_cell:
  lattice:
  - [     4.083427000000000,     0.000000000000000,     0.000000000000000 ] # a
  - [     0.000000000000000,     4.083427000000000,     0.000000000000000 ] # b
  - [     0.000000000000000,     0.000000000000000,     4.083427000000000 ] # c
  points:
  - symbol: Li # 1
    coordinates: [  0.000000000000000,  0.000000000000000,  0.000000000000000 ]
    mass: 6.941000
  - symbol: Li # 2
    coordinates: [  0.500000000000000,  0.500000000000000,  0.000000000000000 ]
    mass: 6.941000
  - symbol: Li # 3
    coordinates: [  0.500000000000000,  0.000000000000000,  0.500000000000000 ]
    mass: 6.941000
  - symbol: Li # 4
    coordinates: [  0.000000000000000,  0.500000000000000,  0.500000000000000 ]
    mass: 6.941000
  - symbol: F # 5
    coordinates: [  0.000000000000000,  0.000000000000000,  0.500000000000000 ]
    mass: 18.998403
  - symbol: F # 6
    coordinates: [  0.500000000000000,  0.000000000000000,  0.000000000000000 ]
    mass: 18.998403
  - symbol: F # 7
    coordinates: [  0.000000000000000,  0.500000000000000,  0.000000000000000 ]
    mass: 18.998403
  - symbol: F # 8
    coordinates: [  0.500000000000000,  0.500000000000000,  0.500000000000000 ]
    mass: 18.998403
  reciprocal_lattice: # without 2pi
  - [     0.244892341653224,     0.000000000000000,     0.000000000000000 ] # a*
  - [     0.000000000000000,     0.244892341653224,     0.000000000000000 ] # b*
  - [     0.000000000000000,     0.000000000000000,     0.244892341653224 ] # c*

unit_cell:
  lattice:
  - [     4.083427000000000,     0.000000000000000,     0.000000000000000 ] # a
  - [     0.000000000000000,     4.083427000000000,     0.000000000000000 ] # b
  - [     0.000000000000000,     0.000000000000000,     4.083427000000000 ] # c
  points:
  - symbol: Li # 1
    coordinates: [  0.000000000000000,  0.000000000000000,  0.000000000000000 ]
    mass: 6.941000
    reduced_to: 1
  - symbol: Li # 2
    coordinates: [  0.500000000000000,  0.500000000000000,  0.000000000000000 ]
    mass: 6.941000
    reduced_to: 2
  - symbol: Li # 3
    coordinates: [  0.500000000000000,  0.000000000000000,  0.500000000000000 ]
    mass: 6.941000
    reduced_to: 3
  - symbol: Li # 4
    coordinates: [  0.000000000000000,  0.500000000000000,  0.500000000000000 ]
    mass: 6.941000
    reduced_to: 4
  - symbol: F # 5
    coordinates: [  0.000000000000000,  0.000000000000000,  0.500000000000000 ]
    mass: 18.998403
    reduced_to: 5
  - symbol: F # 6
    coordinates: [  0.500000000000000,  0.000000000000000,  0.000000000000000 ]
    mass: 18.998403
    reduced_to: 6
  - symbol: F # 7
    coordinates: [  0.000000000000000,  0.500000000000000,  0.000000000000000 ]
    mass: 18.998403
    reduced_to: 7
  - symbol: F # 8
    coordinates: [  0.500000000000000,  0.500000000000000,  0.500000000000000 ]
    mass: 18.998403
    reduced_to: 8

supercell:
  lattice:
  - [     4.083427000000000,     0.000000000000000,     0.000000000000000 ] # a
  - [     0.000000000000000,     4.083427000000000,     0.000000000000000 ] # b
  - [     0.000000000000000,     0.000000000000000,     4.083427000000000 ] # c
  points:
  - symbol: Li # 1
    coordinates: [  0.000000000000000,  0.000000000000000,  0.000000000000000 ]
    mass: 6.941000
    reduced_to: 1
  - symbol: Li # 2
    coordinates: [  0.500000000000000,  0.500000000000000,  0.000000000000000 ]
    mass: 6.941000
    reduced_to: 2
  - symbol: Li # 3
    coordinates: [  0.500000000000000,  0.000000000000000,  0.500000000000000 ]
    mass: 6.941000
    reduced_to: 3
  - symbol: Li # 4
    coordinates: [  0.000000000000000,  0.500000000000000,  0.500000000000000 ]
    mass: 6.941000
    reduced_to: 4
  - symbol: F # 5
    coordinates: [  0.000000000000000,  0.000000000000000,  0.500000000000000 ]
    mass: 18.998403
    reduced_to: 5
  - symbol: F # 6
    coordinates: [  0.500000000000000,  0.000000000000000,  0.000000000000000 ]
    mass: 18.998403
    reduced_to: 6
  - symbol: F # 7
    coordinates: [  0.000000000000000,  0.500000000000000,  0.000000000000000 ]
    mass: 18.998403
    reduced_to: 7
  - symbol: F # 8
    coordinates: [  0.500000000000000,  0.500000000000000,  0.500000000000000 ]
    mass: 18.998403
    reduced_to: 8
