   8    8
1 1
     2.619704366100000     0.000000000000000     0.000000000000000
     0.000000000000000     2.619704366100000     0.000000000000000
     0.000000000000000     0.000000000000000     2.619704366100000
1 2
    -0.827983065600000     0.000000000000000    -0.000000000000000
     0.000000000000000    -0.827983065600000    -0.000000000000000
    -0.000000000000000    -0.000000000000000     0.319461262200000
1 3
    -0.827983065600000     0.000000000000000     0.000000000000000
     0.000000000000000     0.319461262200000    -0.000000000000000
     0.000000000000000    -0.000000000000000    -0.827983065600000
1 4
     0.319461262200000     0.000000000000000    -0.000000000000000
     0.000000000000000    -0.827983065600000     0.000000000000000
    -0.000000000000000     0.000000000000000    -0.827983065600000
1 5
    -0.701552486109378    -0.000000000000000    -0.000000000000000
    -0.000000000000000    -0.701552486109378    -0.000000000000000
     0.000000000000000     0.000000000000000    -0.098092536286841
1 6
    -0.098092536286841    -0.000000000000000     0.000000000000000
    -0.000000000000000    -0.701552486109378     0.000000000000000
    -0.000000000000000     0.000000000000000    -0.701552486109378
1 7
    -0.701552486109378    -0.000000000000000     0.000000000000000
    -0.000000000000000    -0.098092536286841     0.000000000000000
     0.000000000000000    -0.000000000000000    -0.701552486109378
1 8
     0.233288859928473     0.000000000000000     0.000000000000000
     0.000000000000000     0.233288859928473     0.000000000000000
     0.000000000000000     0.000000000000000     0.233288859928473
2 1
    -0.827983065600000     0.000000000000000    -0.000000000000000
     0.000000000000000    -0.827983065600000    -0.000000000000000
    -0.000000000000000    -0.000000000000000     0.319461262200000
2 2
     2.619704366100000     0.000000000000000     0.000000000000000
     0.000000000000000     2.619704366100000     0.000000000000000
     0.000000000000000     0.000000000000000     2.619704366100000
2 3
     0.319461262200000     0.000000000000000    -0.000000000000000
     0.000000000000000    -0.827983065600000     0.000000000000000
    -0.000000000000000     0.000000000000000    -0.827983065600000
2 4
    -0.827983065600000     0.000000000000000     0.000000000000000
     0.000000000000000     0.319461262200000    -0.000000000000000
     0.000000000000000    -0.000000000000000    -0.827983065600000
2 5
     0.233288859928473     0.000000000000000     0.000000000000000
     0.000000000000000     0.233288859928473     0.000000000000000
     0.000000000000000     0.000000000000000     0.233288859928473
2 6
    -0.701552486109378    -0.000000000000000     0.000000000000000
    -0.000000000000000    -0.098092536286841     0.000000000000000
     0.000000000000000    -0.000000000000000    -0.701552486109378
2 7
    -0.098092536286841    -0.000000000000000     0.000000000000000
    -0.000000000000000    -0.701552486109378     0.000000000000000
    -0.000000000000000     0.000000000000000    -0.701552486109378
2 8
    -0.701552486109378    -0.000000000000000    -0.000000000000000
    -0.000000000000000    -0.701552486109378    -0.000000000000000
     0.000000000000000     0.000000000000000    -0.098092536286841
3 1
    -0.827983065600000     0.000000000000000     0.000000000000000
     0.000000000000000     0.319461262200000    -0.000000000000000
     0.000000000000000    -0.000000000000000    -0.827983065600000
3 2
     0.319461262200000     0.000000000000000    -0.000000000000000
     0.000000000000000    -0.827983065600000     0.000000000000000
    -0.000000000000000     0.000000000000000    -0.827983065600000
3 3
     2.619704366100000     0.000000000000000     0.000000000000000
     0.000000000000000     2.619704366100000     0.000000000000000
     0.000000000000000     0.000000000000000     2.619704366100000
3 4
    -0.827983065600000     0.000000000000000    -0.000000000000000
     0.000000000000000    -0.827983065600000    -0.000000000000000
    -0.000000000000000    -0.000000000000000     0.319461262200000
3 5
    -0.098092536286841    -0.000000000000000     0.000000000000000
    -0.000000000000000    -0.701552486109378     0.000000000000000
    -0.000000000000000     0.000000000000000    -0.701552486109378
3 6
    -0.701552486109378    -0.000000000000000    -0.000000000000000
    -0.000000000000000    -0.701552486109378    -0.000000000000000
     0.000000000000000     0.000000000000000    -0.098092536286841
3 7
     0.233288859928473     0.000000000000000     0.000000000000000
     0.000000000000000     0.233288859928473     0.000000000000000
     0.000000000000000     0.000000000000000     0.233288859928473
3 8
    -0.701552486109378    -0.000000000000000     0.000000000000000
    -0.000000000000000    -0.098092536286841     0.000000000000000
     0.000000000000000    -0.000000000000000    -0.701552486109378
4 1
     0.319461262200000     0.000000000000000    -0.000000000000000
     0.000000000000000    -0.827983065600000     0.000000000000000
    -0.000000000000000     0.000000000000000    -0.827983065600000
4 2
    -0.827983065600000     0.000000000000000     0.000000000000000
     0.000000000000000     0.319461262200000    -0.000000000000000
     0.000000000000000    -0.000000000000000    -0.827983065600000
4 3
    -0.827983065600000     0.000000000000000    -0.000000000000000
     0.000000000000000    -0.827983065600000    -0.000000000000000
    -0.000000000000000    -0.000000000000000     0.319461262200000
4 4
     2.619704366100000     0.000000000000000     0.000000000000000
     0.000000000000000     2.619704366100000     0.000000000000000
     0.000000000000000     0.000000000000000     2.619704366100000
4 5
    -0.701552486109378    -0.000000000000000     0.000000000000000
    -0.000000000000000    -0.098092536286841     0.000000000000000
     0.000000000000000    -0.000000000000000    -0.701552486109378
4 6
     0.233288859928473     0.000000000000000     0.000000000000000
     0.000000000000000     0.233288859928473     0.000000000000000
     0.000000000000000     0.000000000000000     0.233288859928473
4 7
    -0.701552486109378    -0.000000000000000    -0.000000000000000
    -0.000000000000000    -0.701552486109378    -0.000000000000000
     0.000000000000000     0.000000000000000    -0.098092536286841
4 8
    -0.098092536286841    -0.000000000000000     0.000000000000000
    -0.000000000000000    -0.701552486109378     0.000000000000000
    -0.000000000000000     0.000000000000000    -0.701552486109378
5 1
    -0.701552486109378    -0.000000000000000     0.000000000000000
    -0.000000000000000    -0.701552486109378     0.000000000000000
    -0.000000000000000    -0.000000000000000    -0.098092536286841
5 2
     0.233288859928473     0.000000000000000     0.000000000000000
     0.000000000000000     0.233288859928473     0.000000000000000
     0.000000000000000     0.000000000000000     0.233288859928473
5 3
    -0.098092536286841    -0.000000000000000    -0.000000000000000
    -0.000000000000000    -0.701552486109378     0.000000000000000
     0.000000000000000     0.000000000000000    -0.701552486109378
5 4
    -0.701552486109378    -0.000000000000000     0.000000000000000
    -0.000000000000000    -0.098092536286841    -0.000000000000000
     0.000000000000000     0.000000000000000    -0.701552486109378
5 5
     4.401304656000000    -0.000000000000000    -0.000000000000000
    -0.000000000000000     4.401304656000000    -0.000000000000000
    -0.000000000000000    -0.000000000000000     4.401304656000000
5 6
    -1.783660286520000    -0.000000000000000    -0.000000000000000
    -0.000000000000000     0.418633658660000    -0.000000000000000
    -0.000000000000000    -0.000000000000000    -1.783660286520000
5 7
     0.418633658660000    -0.000000000000000    -0.000000000000000
    -0.000000000000000    -1.783660286520000    -0.000000000000000
    -0.000000000000000    -0.000000000000000    -1.783660286520000
5 8
    -1.783660286520000    -0.000000000000000    -0.000000000000000
    -0.000000000000000    -1.783660286520000    -0.000000000000000
    -0.000000000000000    -0.000000000000000     0.418633658660000
6 1
    -0.098092536286841    -0.000000000000000    -0.000000000000000
    -0.000000000000000    -0.701552486109378     0.000000000000000
     0.000000000000000     0.000000000000000    -0.701552486109378
6 2
    -0.701552486109378    -0.000000000000000     0.000000000000000
    -0.000000000000000    -0.098092536286841    -0.000000000000000
     0.000000000000000     0.000000000000000    -0.701552486109378
6 3
    -0.701552486109378    -0.000000000000000     0.000000000000000
    -0.000000000000000    -0.701552486109378     0.000000000000000
    -0.000000000000000    -0.000000000000000    -0.098092536286841
6 4
     0.233288859928473     0.000000000000000     0.000000000000000
     0.000000000000000     0.233288859928473     0.000000000000000
     0.000000000000000     0.000000000000000     0.233288859928473
6 5
    -1.783660286520000    -0.000000000000000    -0.000000000000000
    -0.000000000000000     0.418633658660000    -0.000000000000000
    -0.000000000000000    -0.000000000000000    -1.783660286520000
6 6
     4.401304656000000    -0.000000000000000    -0.000000000000000
    -0.000000000000000     4.401304656000000    -0.000000000000000
    -0.000000000000000    -0.000000000000000     4.401304656000000
6 7
    -1.783660286520000    -0.000000000000000    -0.000000000000000
    -0.000000000000000    -1.783660286520000    -0.000000000000000
    -0.000000000000000    -0.000000000000000     0.418633658660000
6 8
     0.418633658660000    -0.000000000000000    -0.000000000000000
    -0.000000000000000    -1.783660286520000    -0.000000000000000
    -0.000000000000000    -0.000000000000000    -1.783660286520000
7 1
    -0.701552486109378    -0.000000000000000     0.000000000000000
    -0.000000000000000    -0.098092536286841    -0.000000000000000
     0.000000000000000     0.000000000000000    -0.701552486109378
7 2
    -0.098092536286841    -0.000000000000000    -0.000000000000000
    -0.000000000000000    -0.701552486109378     0.000000000000000
     0.000000000000000     0.000000000000000    -0.701552486109378
7 3
     0.233288859928473     0.000000000000000     0.000000000000000
     0.000000000000000     0.233288859928473     0.000000000000000
     0.000000000000000     0.000000000000000     0.233288859928473
7 4
    -0.701552486109378    -0.000000000000000     0.000000000000000
    -0.000000000000000    -0.701552486109378     0.000000000000000
    -0.000000000000000    -0.000000000000000    -0.098092536286841
7 5
     0.418633658660000    -0.000000000000000    -0.000000000000000
    -0.000000000000000    -1.783660286520000    -0.000000000000000
    -0.000000000000000    -0.000000000000000    -1.783660286520000
7 6
    -1.783660286520000    -0.000000000000000    -0.000000000000000
    -0.000000000000000    -1.783660286520000    -0.000000000000000
    -0.000000000000000    -0.000000000000000     0.418633658660000
7 7
     4.401304656000000    -0.000000000000000    -0.000000000000000
    -0.000000000000000     4.401304656000000    -0.000000000000000
    -0.000000000000000    -0.000000000000000     4.401304656000000
7 8
    -1.783660286520000    -0.000000000000000    -0.000000000000000
    -0.000000000000000     0.418633658660000    -0.000000000000000
    -0.000000000000000    -0.000000000000000    -1.783660286520000
8 1
     0.233288859928473     0.000000000000000     0.000000000000000
     0.000000000000000     0.233288859928473     0.000000000000000
     0.000000000000000     0.000000000000000     0.233288859928473
8 2
    -0.701552486109378    -0.000000000000000     0.000000000000000
    -0.000000000000000    -0.701552486109378     0.000000000000000
    -0.000000000000000    -0.000000000000000    -0.098092536286841
8 3
    -0.701552486109378    -0.000000000000000     0.000000000000000
    -0.000000000000000    -0.098092536286841    -0.000000000000000
     0.000000000000000     0.000000000000000    -0.701552486109378
8 4
    -0.098092536286841    -0.000000000000000    -0.000000000000000
    -0.000000000000000    -0.701552486109378     0.000000000000000
     0.000000000000000     0.000000000000000    -0.701552486109378
8 5
    -1.783660286520000    -0.000000000000000    -0.000000000000000
    -0.000000000000000    -1.783660286520000    -0.000000000000000
    -0.000000000000000    -0.000000000000000     0.418633658660000
8 6
     0.418633658660000    -0.000000000000000    -0.000000000000000
    -0.000000000000000    -1.783660286520000    -0.000000000000000
    -0.000000000000000    -0.000000000000000    -1.783660286520000
8 7
    -1.783660286520000    -0.000000000000000    -0.000000000000000
    -0.000000000000000     0.418633658660000    -0.000000000000000
    -0.000000000000000    -0.000000000000000    -1.783660286520000
8 8
     4.401304656000000    -0.000000000000000    -0.000000000000000
    -0.000000000000000     4.401304656000000    -0.000000000000000
    -0.000000000000000    -0.000000000000000     4.401304656000000