ITEM: TIMESTEP
0
ITEM: NUMBER OF ATOMS
1024
ITEM: BOX BOUNDS pp pp pp
0 22.992
0 22.992
0 22.992
ITEM: ATOMS id type xs ys zs
1	1   0.062499988492 0.062499988492 0.062499988492
2	1   0.062499988492 0.062499988492 0.187499988492
3	1   0.062499988492 0.062499988492 0.312499988492
4	1   0.062499988492 0.062499988492 0.437499988492
5	1   0.062499988492 0.062499988492 0.562499988492
6	1   0.062499988492 0.062499988492 0.687499988492
7	1   0.062499988492 0.062499988492 0.812499988492
8	1   0.062499988492 0.062499988492 0.937499988492
9	1   0.062499988492 0.187499988492 0.062499988492
10	1   0.062499988492 0.187499988492 0.187499988492
11	1   0.062499988492 0.187499988492 0.312499988492
12	1   0.062499988492 0.187499988492 0.437499988492
13	1   0.062499988492 0.187499988492 0.562499988492
14	1   0.062499988492 0.187499988492 0.687499988492
15	1   0.062499988492 0.187499988492 0.812499988492
16	1   0.062499988492 0.187499988492 0.937499988492
17	1   0.062499988492 0.312499988492 0.062499988492
18	1   0.062499988492 0.312499988492 0.187499988492
19	1   0.062499988492 0.312499988492 0.312499988492
20	1   0.062499988492 0.312499988492 0.437499988492
21	1   0.062499988492 0.312499988492 0.562499988492
22	1   0.062499988492 0.312499988492 0.687499988492
23	1   0.062499988492 0.312499988492 0.812499988492
24	1   0.062499988492 0.312499988492 0.937499988492
25	1   0.062499988492 0.437499988492 0.062499988492
26	1   0.062499988492 0.437499988492 0.187499988492
27	1   0.062499988492 0.437499988492 0.312499988492
28	1   0.062499988492 0.437499988492 0.437499988492
29	1   0.062499988492 0.437499988492 0.562499988492
30	1   0.062499988492 0.437499988492 0.687499988492
31	1   0.062499988492 0.437499988492 0.812499988492
32	1   0.062499988492 0.437499988492 0.937499988492
33	1   0.062499988492 0.562499988492 0.062499988492
34	1   0.062499988492 0.562499988492 0.187499988492
35	1   0.062499988492 0.562499988492 0.312499988492
36	1   0.062499988492 0.562499988492 0.437499988492
37	1   0.062499988492 0.562499988492 0.562499988492
38	1   0.062499988492 0.562499988492 0.687499988492
39	1   0.062499988492 0.562499988492 0.812499988492
40	1   0.062499988492 0.562499988492 0.937499988492
41	1   0.062499988492 0.687499988492 0.062499988492
42	1   0.062499988492 0.687499988492 0.187499988492
43	1   0.062499988492 0.687499988492 0.312499988492
44	1   0.062499988492 0.687499988492 0.437499988492
45	1   0.062499988492 0.687499988492 0.562499988492
46	1   0.062499988492 0.687499988492 0.687499988492
47	1   0.062499988492 0.687499988492 0.812499988492
48	1   0.062499988492 0.687499988492 0.937499988492
49	1   0.062499988492 0.812499988492 0.062499988492
50	1   0.062499988492 0.812499988492 0.187499988492
51	1   0.062499988492 0.812499988492 0.312499988492
52	1   0.062499988492 0.812499988492 0.437499988492
53	1   0.062499988492 0.812499988492 0.562499988492
54	1   0.062499988492 0.812499988492 0.687499988492
55	1   0.062499988492 0.812499988492 0.812499988492
56	1   0.062499988492 0.812499988492 0.937499988492
57	1   0.062499988492 0.937499988492 0.062499988492
58	1   0.062499988492 0.937499988492 0.187499988492
59	1   0.062499988492 0.937499988492 0.312499988492
60	1   0.062499988492 0.937499988492 0.437499988492
61	1   0.062499988492 0.937499988492 0.562499988492
62	1   0.062499988492 0.937499988492 0.687499988492
63	1   0.062499988492 0.937499988492 0.812499988492
64	1   0.062499988492 0.937499988492 0.937499988492
65	1   0.187499988492 0.062499988492 0.062499988492
66	1   0.187499988492 0.062499988492 0.187499988492
67	1   0.187499988492 0.062499988492 0.312499988492
68	1   0.187499988492 0.062499988492 0.437499988492
69	1   0.187499988492 0.062499988492 0.562499988492
70	1   0.187499988492 0.062499988492 0.687499988492
71	1   0.187499988492 0.062499988492 0.812499988492
72	1   0.187499988492 0.062499988492 0.937499988492
73	1   0.187499988492 0.187499988492 0.062499988492
74	1   0.187499988492 0.187499988492 0.187499988492
75	1   0.187499988492 0.187499988492 0.312499988492
76	1   0.187499988492 0.187499988492 0.437499988492
77	1   0.187499988492 0.187499988492 0.562499988492
78	1   0.187499988492 0.187499988492 0.687499988492
79	1   0.187499988492 0.187499988492 0.812499988492
80	1   0.187499988492 0.187499988492 0.937499988492
81	1   0.187499988492 0.312499988492 0.062499988492
82	1   0.187499988492 0.312499988492 0.187499988492
83	1   0.187499988492 0.312499988492 0.312499988492
84	1   0.187499988492 0.312499988492 0.437499988492
85	1   0.187499988492 0.312499988492 0.562499988492
86	1   0.187499988492 0.312499988492 0.687499988492
87	1   0.187499988492 0.312499988492 0.812499988492
88	1   0.187499988492 0.312499988492 0.937499988492
89	1   0.187499988492 0.437499988492 0.062499988492
90	1   0.187499988492 0.437499988492 0.187499988492
91	1   0.187499988492 0.437499988492 0.312499988492
92	1   0.187499988492 0.437499988492 0.437499988492
93	1   0.187499988492 0.437499988492 0.562499988492
94	1   0.187499988492 0.437499988492 0.687499988492
95	1   0.187499988492 0.437499988492 0.812499988492
96	1   0.187499988492 0.437499988492 0.937499988492
97	1   0.187499988492 0.562499988492 0.062499988492
98	1   0.187499988492 0.562499988492 0.187499988492
99	1   0.187499988492 0.562499988492 0.312499988492
100	1   0.187499988492 0.562499988492 0.437499988492
101	1   0.187499988492 0.562499988492 0.562499988492
102	1   0.187499988492 0.562499988492 0.687499988492
103	1   0.187499988492 0.562499988492 0.812499988492
104	1   0.187499988492 0.562499988492 0.937499988492
105	1   0.187499988492 0.687499988492 0.062499988492
106	1   0.187499988492 0.687499988492 0.187499988492
107	1   0.187499988492 0.687499988492 0.312499988492
108	1   0.187499988492 0.687499988492 0.437499988492
109	1   0.187499988492 0.687499988492 0.562499988492
110	1   0.187499988492 0.687499988492 0.687499988492
111	1   0.187499988492 0.687499988492 0.812499988492
112	1   0.187499988492 0.687499988492 0.937499988492
113	1   0.187499988492 0.812499988492 0.062499988492
114	1   0.187499988492 0.812499988492 0.187499988492
115	1   0.187499988492 0.812499988492 0.312499988492
116	1   0.187499988492 0.812499988492 0.437499988492
117	1   0.187499988492 0.812499988492 0.562499988492
118	1   0.187499988492 0.812499988492 0.687499988492
119	1   0.187499988492 0.812499988492 0.812499988492
120	1   0.187499988492 0.812499988492 0.937499988492
121	1   0.187499988492 0.937499988492 0.062499988492
122	1   0.187499988492 0.937499988492 0.187499988492
123	1   0.187499988492 0.937499988492 0.312499988492
124	1   0.187499988492 0.937499988492 0.437499988492
125	1   0.187499988492 0.937499988492 0.562499988492
126	1   0.187499988492 0.937499988492 0.687499988492
127	1   0.187499988492 0.937499988492 0.812499988492
128	1   0.187499988492 0.937499988492 0.937499988492
129	1   0.312499988492 0.062499988492 0.062499988492
130	1   0.312499988492 0.062499988492 0.187499988492
131	1   0.312499988492 0.062499988492 0.312499988492
132	1   0.312499988492 0.062499988492 0.437499988492
133	1   0.312499988492 0.062499988492 0.562499988492
134	1   0.312499988492 0.062499988492 0.687499988492
135	1   0.312499988492 0.062499988492 0.812499988492
136	1   0.312499988492 0.062499988492 0.937499988492
137	1   0.312499988492 0.187499988492 0.062499988492
138	1   0.312499988492 0.187499988492 0.187499988492
139	1   0.312499988492 0.187499988492 0.312499988492
140	1   0.312499988492 0.187499988492 0.437499988492
141	1   0.312499988492 0.187499988492 0.562499988492
142	1   0.312499988492 0.187499988492 0.687499988492
143	1   0.312499988492 0.187499988492 0.812499988492
144	1   0.312499988492 0.187499988492 0.937499988492
145	1   0.312499988492 0.312499988492 0.062499988492
146	1   0.312499988492 0.312499988492 0.187499988492
147	1   0.312499988492 0.312499988492 0.312499988492
148	1   0.312499988492 0.312499988492 0.437499988492
149	1   0.312499988492 0.312499988492 0.562499988492
150	1   0.312499988492 0.312499988492 0.687499988492
151	1   0.312499988492 0.312499988492 0.812499988492
152	1   0.312499988492 0.312499988492 0.937499988492
153	1   0.312499988492 0.437499988492 0.062499988492
154	1   0.312499988492 0.437499988492 0.187499988492
155	1   0.312499988492 0.437499988492 0.312499988492
156	1   0.312499988492 0.437499988492 0.437499988492
157	1   0.312499988492 0.437499988492 0.562499988492
158	1   0.312499988492 0.437499988492 0.687499988492
159	1   0.312499988492 0.437499988492 0.812499988492
160	1   0.312499988492 0.437499988492 0.937499988492
161	1   0.312499988492 0.562499988492 0.062499988492
162	1   0.312499988492 0.562499988492 0.187499988492
163	1   0.312499988492 0.562499988492 0.312499988492
164	1   0.312499988492 0.562499988492 0.437499988492
165	1   0.312499988492 0.562499988492 0.562499988492
166	1   0.312499988492 0.562499988492 0.687499988492
167	1   0.312499988492 0.562499988492 0.812499988492
168	1   0.312499988492 0.562499988492 0.937499988492
169	1   0.312499988492 0.687499988492 0.062499988492
170	1   0.312499988492 0.687499988492 0.187499988492
171	1   0.312499988492 0.687499988492 0.312499988492
172	1   0.312499988492 0.687499988492 0.437499988492
173	1   0.312499988492 0.687499988492 0.562499988492
174	1   0.312499988492 0.687499988492 0.687499988492
175	1   0.312499988492 0.687499988492 0.812499988492
176	1   0.312499988492 0.687499988492 0.937499988492
177	1   0.312499988492 0.812499988492 0.062499988492
178	1   0.312499988492 0.812499988492 0.187499988492
179	1   0.312499988492 0.812499988492 0.312499988492
180	1   0.312499988492 0.812499988492 0.437499988492
181	1   0.312499988492 0.812499988492 0.562499988492
182	1   0.312499988492 0.812499988492 0.687499988492
183	1   0.312499988492 0.812499988492 0.812499988492
184	1   0.312499988492 0.812499988492 0.937499988492
185	1   0.312499988492 0.937499988492 0.062499988492
186	1   0.312499988492 0.937499988492 0.187499988492
187	1   0.312499988492 0.937499988492 0.312499988492
188	1   0.312499988492 0.937499988492 0.437499988492
189	1   0.312499988492 0.937499988492 0.562499988492
190	1   0.312499988492 0.937499988492 0.687499988492
191	1   0.312499988492 0.937499988492 0.812499988492
192	1   0.312499988492 0.937499988492 0.937499988492
193	1   0.437499988492 0.062499988492 0.062499988492
194	1   0.437499988492 0.062499988492 0.187499988492
195	1   0.437499988492 0.062499988492 0.312499988492
196	1   0.437499988492 0.062499988492 0.437499988492
197	1   0.437499988492 0.062499988492 0.562499988492
198	1   0.437499988492 0.062499988492 0.687499988492
199	1   0.437499988492 0.062499988492 0.812499988492
200	1   0.437499988492 0.062499988492 0.937499988492
201	1   0.437499988492 0.187499988492 0.062499988492
202	1   0.437499988492 0.187499988492 0.187499988492
203	1   0.437499988492 0.187499988492 0.312499988492
204	1   0.437499988492 0.187499988492 0.437499988492
205	1   0.437499988492 0.187499988492 0.562499988492
206	1   0.437499988492 0.187499988492 0.687499988492
207	1   0.437499988492 0.187499988492 0.812499988492
208	1   0.437499988492 0.187499988492 0.937499988492
209	1   0.437499988492 0.312499988492 0.062499988492
210	1   0.437499988492 0.312499988492 0.187499988492
211	1   0.437499988492 0.312499988492 0.312499988492
212	1   0.437499988492 0.312499988492 0.437499988492
213	1   0.437499988492 0.312499988492 0.562499988492
214	1   0.437499988492 0.312499988492 0.687499988492
215	1   0.437499988492 0.312499988492 0.812499988492
216	1   0.437499988492 0.312499988492 0.937499988492
217	1   0.437499988492 0.437499988492 0.062499988492
218	1   0.437499988492 0.437499988492 0.187499988492
219	1   0.437499988492 0.437499988492 0.312499988492
220	1   0.437499988492 0.437499988492 0.437499988492
221	1   0.437499988492 0.437499988492 0.562499988492
222	1   0.437499988492 0.437499988492 0.687499988492
223	1   0.437499988492 0.437499988492 0.812499988492
224	1   0.437499988492 0.437499988492 0.937499988492
225	1   0.437499988492 0.562499988492 0.062499988492
226	1   0.437499988492 0.562499988492 0.187499988492
227	1   0.437499988492 0.562499988492 0.312499988492
228	1   0.437499988492 0.562499988492 0.437499988492
229	1   0.437499988492 0.562499988492 0.562499988492
230	1   0.437499988492 0.562499988492 0.687499988492
231	1   0.437499988492 0.562499988492 0.812499988492
232	1   0.437499988492 0.562499988492 0.937499988492
233	1   0.437499988492 0.687499988492 0.062499988492
234	1   0.437499988492 0.687499988492 0.187499988492
235	1   0.437499988492 0.687499988492 0.312499988492
236	1   0.437499988492 0.687499988492 0.437499988492
237	1   0.437499988492 0.687499988492 0.562499988492
238	1   0.437499988492 0.687499988492 0.687499988492
239	1   0.437499988492 0.687499988492 0.812499988492
240	1   0.437499988492 0.687499988492 0.937499988492
241	1   0.437499988492 0.812499988492 0.062499988492
242	1   0.437499988492 0.812499988492 0.187499988492
243	1   0.437499988492 0.812499988492 0.312499988492
244	1   0.437499988492 0.812499988492 0.437499988492
245	1   0.437499988492 0.812499988492 0.562499988492
246	1   0.437499988492 0.812499988492 0.687499988492
247	1   0.437499988492 0.812499988492 0.812499988492
248	1   0.437499988492 0.812499988492 0.937499988492
249	1   0.437499988492 0.937499988492 0.062499988492
250	1   0.437499988492 0.937499988492 0.187499988492
251	1   0.437499988492 0.937499988492 0.312499988492
252	1   0.437499988492 0.937499988492 0.437499988492
253	1   0.437499988492 0.937499988492 0.562499988492
254	1   0.437499988492 0.937499988492 0.687499988492
255	1   0.437499988492 0.937499988492 0.812499988492
256	1   0.437499988492 0.937499988492 0.937499988492
257	1   0.562499988492 0.062499988492 0.062499988492
258	1   0.562499988492 0.062499988492 0.187499988492
259	1   0.562499988492 0.062499988492 0.312499988492
260	1   0.562499988492 0.062499988492 0.437499988492
261	1   0.562499988492 0.062499988492 0.562499988492
262	1   0.562499988492 0.062499988492 0.687499988492
263	1   0.562499988492 0.062499988492 0.812499988492
264	1   0.562499988492 0.062499988492 0.937499988492
265	1   0.562499988492 0.187499988492 0.062499988492
266	1   0.562499988492 0.187499988492 0.187499988492
267	1   0.562499988492 0.187499988492 0.312499988492
268	1   0.562499988492 0.187499988492 0.437499988492
269	1   0.562499988492 0.187499988492 0.562499988492
270	1   0.562499988492 0.187499988492 0.687499988492
271	1   0.562499988492 0.187499988492 0.812499988492
272	1   0.562499988492 0.187499988492 0.937499988492
273	1   0.562499988492 0.312499988492 0.062499988492
274	1   0.562499988492 0.312499988492 0.187499988492
275	1   0.562499988492 0.312499988492 0.312499988492
276	1   0.562499988492 0.312499988492 0.437499988492
277	1   0.562499988492 0.312499988492 0.562499988492
278	1   0.562499988492 0.312499988492 0.687499988492
279	1   0.562499988492 0.312499988492 0.812499988492
280	1   0.562499988492 0.312499988492 0.937499988492
281	1   0.562499988492 0.437499988492 0.062499988492
282	1   0.562499988492 0.437499988492 0.187499988492
283	1   0.562499988492 0.437499988492 0.312499988492
284	1   0.562499988492 0.437499988492 0.437499988492
285	1   0.562499988492 0.437499988492 0.562499988492
286	1   0.562499988492 0.437499988492 0.687499988492
287	1   0.562499988492 0.437499988492 0.812499988492
288	1   0.562499988492 0.437499988492 0.937499988492
289	1   0.562499988492 0.562499988492 0.062499988492
290	1   0.562499988492 0.562499988492 0.187499988492
291	1   0.562499988492 0.562499988492 0.312499988492
292	1   0.562499988492 0.562499988492 0.437499988492
293	1   0.562499988492 0.562499988492 0.562499988492
294	1   0.562499988492 0.562499988492 0.687499988492
295	1   0.562499988492 0.562499988492 0.812499988492
296	1   0.562499988492 0.562499988492 0.937499988492
297	1   0.562499988492 0.687499988492 0.062499988492
298	1   0.562499988492 0.687499988492 0.187499988492
299	1   0.562499988492 0.687499988492 0.312499988492
300	1   0.562499988492 0.687499988492 0.437499988492
301	1   0.562499988492 0.687499988492 0.562499988492
302	1   0.562499988492 0.687499988492 0.687499988492
303	1   0.562499988492 0.687499988492 0.812499988492
304	1   0.562499988492 0.687499988492 0.937499988492
305	1   0.562499988492 0.812499988492 0.062499988492
306	1   0.562499988492 0.812499988492 0.187499988492
307	1   0.562499988492 0.812499988492 0.312499988492
308	1   0.562499988492 0.812499988492 0.437499988492
309	1   0.562499988492 0.812499988492 0.562499988492
310	1   0.562499988492 0.812499988492 0.687499988492
311	1   0.562499988492 0.812499988492 0.812499988492
312	1   0.562499988492 0.812499988492 0.937499988492
313	1   0.562499988492 0.937499988492 0.062499988492
314	1   0.562499988492 0.937499988492 0.187499988492
315	1   0.562499988492 0.937499988492 0.312499988492
316	1   0.562499988492 0.937499988492 0.437499988492
317	1   0.562499988492 0.937499988492 0.562499988492
318	1   0.562499988492 0.937499988492 0.687499988492
319	1   0.562499988492 0.937499988492 0.812499988492
320	1   0.562499988492 0.937499988492 0.937499988492
321	1   0.687499988492 0.062499988492 0.062499988492
322	1   0.687499988492 0.062499988492 0.187499988492
323	1   0.687499988492 0.062499988492 0.312499988492
324	1   0.687499988492 0.062499988492 0.437499988492
325	1   0.687499988492 0.062499988492 0.562499988492
326	1   0.687499988492 0.062499988492 0.687499988492
327	1   0.687499988492 0.062499988492 0.812499988492
328	1   0.687499988492 0.062499988492 0.937499988492
329	1   0.687499988492 0.187499988492 0.062499988492
330	1   0.687499988492 0.187499988492 0.187499988492
331	1   0.687499988492 0.187499988492 0.312499988492
332	1   0.687499988492 0.187499988492 0.437499988492
333	1   0.687499988492 0.187499988492 0.562499988492
334	1   0.687499988492 0.187499988492 0.687499988492
335	1   0.687499988492 0.187499988492 0.812499988492
336	1   0.687499988492 0.187499988492 0.937499988492
337	1   0.687499988492 0.312499988492 0.062499988492
338	1   0.687499988492 0.312499988492 0.187499988492
339	1   0.687499988492 0.312499988492 0.312499988492
340	1   0.687499988492 0.312499988492 0.437499988492
341	1   0.687499988492 0.312499988492 0.562499988492
342	1   0.687499988492 0.312499988492 0.687499988492
343	1   0.687499988492 0.312499988492 0.812499988492
344	1   0.687499988492 0.312499988492 0.937499988492
345	1   0.687499988492 0.437499988492 0.062499988492
346	1   0.687499988492 0.437499988492 0.187499988492
347	1   0.687499988492 0.437499988492 0.312499988492
348	1   0.687499988492 0.437499988492 0.437499988492
349	1   0.687499988492 0.437499988492 0.562499988492
350	1   0.687499988492 0.437499988492 0.687499988492
351	1   0.687499988492 0.437499988492 0.812499988492
352	1   0.687499988492 0.437499988492 0.937499988492
353	1   0.687499988492 0.562499988492 0.062499988492
354	1   0.687499988492 0.562499988492 0.187499988492
355	1   0.687499988492 0.562499988492 0.312499988492
356	1   0.687499988492 0.562499988492 0.437499988492
357	1   0.687499988492 0.562499988492 0.562499988492
358	1   0.687499988492 0.562499988492 0.687499988492
359	1   0.687499988492 0.562499988492 0.812499988492
360	1   0.687499988492 0.562499988492 0.937499988492
361	1   0.687499988492 0.687499988492 0.062499988492
362	1   0.687499988492 0.687499988492 0.187499988492
363	1   0.687499988492 0.687499988492 0.312499988492
364	1   0.687499988492 0.687499988492 0.437499988492
365	1   0.687499988492 0.687499988492 0.562499988492
366	1   0.687499988492 0.687499988492 0.687499988492
367	1   0.687499988492 0.687499988492 0.812499988492
368	1   0.687499988492 0.687499988492 0.937499988492
369	1   0.687499988492 0.812499988492 0.062499988492
370	1   0.687499988492 0.812499988492 0.187499988492
371	1   0.687499988492 0.812499988492 0.312499988492
372	1   0.687499988492 0.812499988492 0.437499988492
373	1   0.687499988492 0.812499988492 0.562499988492
374	1   0.687499988492 0.812499988492 0.687499988492
375	1   0.687499988492 0.812499988492 0.812499988492
376	1   0.687499988492 0.812499988492 0.937499988492
377	1   0.687499988492 0.937499988492 0.062499988492
378	1   0.687499988492 0.937499988492 0.187499988492
379	1   0.687499988492 0.937499988492 0.312499988492
380	1   0.687499988492 0.937499988492 0.437499988492
381	1   0.687499988492 0.937499988492 0.562499988492
382	1   0.687499988492 0.937499988492 0.687499988492
383	1   0.687499988492 0.937499988492 0.812499988492
384	1   0.687499988492 0.937499988492 0.937499988492
385	1   0.812499988492 0.062499988492 0.062499988492
386	1   0.812499988492 0.062499988492 0.187499988492
387	1   0.812499988492 0.062499988492 0.312499988492
388	1   0.812499988492 0.062499988492 0.437499988492
389	1   0.812499988492 0.062499988492 0.562499988492
390	1   0.812499988492 0.062499988492 0.687499988492
391	1   0.812499988492 0.062499988492 0.812499988492
392	1   0.812499988492 0.062499988492 0.937499988492
393	1   0.812499988492 0.187499988492 0.062499988492
394	1   0.812499988492 0.187499988492 0.187499988492
395	1   0.812499988492 0.187499988492 0.312499988492
396	1   0.812499988492 0.187499988492 0.437499988492
397	1   0.812499988492 0.187499988492 0.562499988492
398	1   0.812499988492 0.187499988492 0.687499988492
399	1   0.812499988492 0.187499988492 0.812499988492
400	1   0.812499988492 0.187499988492 0.937499988492
401	1   0.812499988492 0.312499988492 0.062499988492
402	1   0.812499988492 0.312499988492 0.187499988492
403	1   0.812499988492 0.312499988492 0.312499988492
404	1   0.812499988492 0.312499988492 0.437499988492
405	1   0.812499988492 0.312499988492 0.562499988492
406	1   0.812499988492 0.312499988492 0.687499988492
407	1   0.812499988492 0.312499988492 0.812499988492
408	1   0.812499988492 0.312499988492 0.937499988492
409	1   0.812499988492 0.437499988492 0.062499988492
410	1   0.812499988492 0.437499988492 0.187499988492
411	1   0.812499988492 0.437499988492 0.312499988492
412	1   0.812499988492 0.437499988492 0.437499988492
413	1   0.812499988492 0.437499988492 0.562499988492
414	1   0.812499988492 0.437499988492 0.687499988492
415	1   0.812499988492 0.437499988492 0.812499988492
416	1   0.812499988492 0.437499988492 0.937499988492
417	1   0.812499988492 0.562499988492 0.062499988492
418	1   0.812499988492 0.562499988492 0.187499988492
419	1   0.812499988492 0.562499988492 0.312499988492
420	1   0.812499988492 0.562499988492 0.437499988492
421	1   0.812499988492 0.562499988492 0.562499988492
422	1   0.812499988492 0.562499988492 0.687499988492
423	1   0.812499988492 0.562499988492 0.812499988492
424	1   0.812499988492 0.562499988492 0.937499988492
425	1   0.812499988492 0.687499988492 0.062499988492
426	1   0.812499988492 0.687499988492 0.187499988492
427	1   0.812499988492 0.687499988492 0.312499988492
428	1   0.812499988492 0.687499988492 0.437499988492
429	1   0.812499988492 0.687499988492 0.562499988492
430	1   0.812499988492 0.687499988492 0.687499988492
431	1   0.812499988492 0.687499988492 0.812499988492
432	1   0.812499988492 0.687499988492 0.937499988492
433	1   0.812499988492 0.812499988492 0.062499988492
434	1   0.812499988492 0.812499988492 0.187499988492
435	1   0.812499988492 0.812499988492 0.312499988492
436	1   0.812499988492 0.812499988492 0.437499988492
437	1   0.812499988492 0.812499988492 0.562499988492
438	1   0.812499988492 0.812499988492 0.687499988492
439	1   0.812499988492 0.812499988492 0.812499988492
440	1   0.812499988492 0.812499988492 0.937499988492
441	1   0.812499988492 0.937499988492 0.062499988492
442	1   0.812499988492 0.937499988492 0.187499988492
443	1   0.812499988492 0.937499988492 0.312499988492
444	1   0.812499988492 0.937499988492 0.437499988492
445	1   0.812499988492 0.937499988492 0.562499988492
446	1   0.812499988492 0.937499988492 0.687499988492
447	1   0.812499988492 0.937499988492 0.812499988492
448	1   0.812499988492 0.937499988492 0.937499988492
449	1   0.937499988492 0.062499988492 0.062499988492
450	1   0.937499988492 0.062499988492 0.187499988492
451	1   0.937499988492 0.062499988492 0.312499988492
452	1   0.937499988492 0.062499988492 0.437499988492
453	1   0.937499988492 0.062499988492 0.562499988492
454	1   0.937499988492 0.062499988492 0.687499988492
455	1   0.937499988492 0.062499988492 0.812499988492
456	1   0.937499988492 0.062499988492 0.937499988492
457	1   0.937499988492 0.187499988492 0.062499988492
458	1   0.937499988492 0.187499988492 0.187499988492
459	1   0.937499988492 0.187499988492 0.312499988492
460	1   0.937499988492 0.187499988492 0.437499988492
461	1   0.937499988492 0.187499988492 0.562499988492
462	1   0.937499988492 0.187499988492 0.687499988492
463	1   0.937499988492 0.187499988492 0.812499988492
464	1   0.937499988492 0.187499988492 0.937499988492
465	1   0.937499988492 0.312499988492 0.062499988492
466	1   0.937499988492 0.312499988492 0.187499988492
467	1   0.937499988492 0.312499988492 0.312499988492
468	1   0.937499988492 0.312499988492 0.437499988492
469	1   0.937499988492 0.312499988492 0.562499988492
470	1   0.937499988492 0.312499988492 0.687499988492
471	1   0.937499988492 0.312499988492 0.812499988492
472	1   0.937499988492 0.312499988492 0.937499988492
473	1   0.937499988492 0.437499988492 0.062499988492
474	1   0.937499988492 0.437499988492 0.187499988492
475	1   0.937499988492 0.437499988492 0.312499988492
476	1   0.937499988492 0.437499988492 0.437499988492
477	1   0.937499988492 0.437499988492 0.562499988492
478	1   0.937499988492 0.437499988492 0.687499988492
479	1   0.937499988492 0.437499988492 0.812499988492
480	1   0.937499988492 0.437499988492 0.937499988492
481	1   0.937499988492 0.562499988492 0.062499988492
482	1   0.937499988492 0.562499988492 0.187499988492
483	1   0.937499988492 0.562499988492 0.312499988492
484	1   0.937499988492 0.562499988492 0.437499988492
485	1   0.937499988492 0.562499988492 0.562499988492
486	1   0.937499988492 0.562499988492 0.687499988492
487	1   0.937499988492 0.562499988492 0.812499988492
488	1   0.937499988492 0.562499988492 0.937499988492
489	1   0.937499988492 0.687499988492 0.062499988492
490	1   0.937499988492 0.687499988492 0.187499988492
491	1   0.937499988492 0.687499988492 0.312499988492
492	1   0.937499988492 0.687499988492 0.437499988492
493	1   0.937499988492 0.687499988492 0.562499988492
494	1   0.937499988492 0.687499988492 0.687499988492
495	1   0.937499988492 0.687499988492 0.812499988492
496	1   0.937499988492 0.687499988492 0.937499988492
497	1   0.937499988492 0.812499988492 0.062499988492
498	1   0.937499988492 0.812499988492 0.187499988492
499	1   0.937499988492 0.812499988492 0.312499988492
500	1   0.937499988492 0.812499988492 0.437499988492
501	1   0.937499988492 0.812499988492 0.562499988492
502	1   0.937499988492 0.812499988492 0.687499988492
503	1   0.937499988492 0.812499988492 0.812499988492
504	1   0.937499988492 0.812499988492 0.937499988492
505	1   0.937499988492 0.937499988492 0.062499988492
506	1   0.937499988492 0.937499988492 0.187499988492
507	1   0.937499988492 0.937499988492 0.312499988492
508	1   0.937499988492 0.937499988492 0.437499988492
509	1   0.937499988492 0.937499988492 0.562499988492
510	1   0.937499988492 0.937499988492 0.687499988492
511	1   0.937499988492 0.937499988492 0.812499988492
512	1   0.937499988492 0.937499988492 0.937499988492
513	2   0.000000000000 0.000000000000 0.000000000000
514	2   0.000000000000 0.000000000000 0.125000000000
515	2   0.000000000000 0.000000000000 0.250000000000
516	2   0.000000000000 0.000000000000 0.375000000000
517	2   0.000000000000 0.000000000000 0.500000000000
518	2   0.000000000000 0.000000000000 0.625000000000
519	2   0.000000000000 0.000000000000 0.750000000000
520	2   0.000000000000 0.000000000000 0.875000000000
521	2   0.000000000000 0.125000000000 0.000000000000
522	2   0.000000000000 0.125000000000 0.125000000000
523	2   0.000000000000 0.125000000000 0.250000000000
524	2   0.000000000000 0.125000000000 0.375000000000
525	2   0.000000000000 0.125000000000 0.500000000000
526	2   0.000000000000 0.125000000000 0.625000000000
527	2   0.000000000000 0.125000000000 0.750000000000
528	2   0.000000000000 0.125000000000 0.875000000000
529	2   0.000000000000 0.250000000000 0.000000000000
530	2   0.000000000000 0.250000000000 0.125000000000
531	2   0.000000000000 0.250000000000 0.250000000000
532	2   0.000000000000 0.250000000000 0.375000000000
533	2   0.000000000000 0.250000000000 0.500000000000
534	2   0.000000000000 0.250000000000 0.625000000000
535	2   0.000000000000 0.250000000000 0.750000000000
536	2   0.000000000000 0.250000000000 0.875000000000
537	2   0.000000000000 0.375000000000 0.000000000000
538	2   0.000000000000 0.375000000000 0.125000000000
539	2   0.000000000000 0.375000000000 0.250000000000
540	2   0.000000000000 0.375000000000 0.375000000000
541	2   0.000000000000 0.375000000000 0.500000000000
542	2   0.000000000000 0.375000000000 0.625000000000
543	2   0.000000000000 0.375000000000 0.750000000000
544	2   0.000000000000 0.375000000000 0.875000000000
545	2   0.000000000000 0.500000000000 0.000000000000
546	2   0.000000000000 0.500000000000 0.125000000000
547	2   0.000000000000 0.500000000000 0.250000000000
548	2   0.000000000000 0.500000000000 0.375000000000
549	2   0.000000000000 0.500000000000 0.500000000000
550	2   0.000000000000 0.500000000000 0.625000000000
551	2   0.000000000000 0.500000000000 0.750000000000
552	2   0.000000000000 0.500000000000 0.875000000000
553	2   0.000000000000 0.625000000000 0.000000000000
554	2   0.000000000000 0.625000000000 0.125000000000
555	2   0.000000000000 0.625000000000 0.250000000000