<?xml version="1.0" encoding="UTF-8"?>
<UPF version="2.0.1">
  <PP_INFO><![CDATA[
Generated using "atomic" code by A. Dal Corso  v.6.4.1
Author: TM
Generation date: 18Oct2023
Pseudopotential type: NC
Element: Li
Functional: PBE
    Suggested minimum cutoff for wavefunctions:   0. Ry
    Suggested minimum cutoff for charge density:   0. Ry
    The Pseudo was generated with a Scalar-Relativistic Calculation
    L component and cutoff radius for Local Potential:  0   2.4500
    Pseudopotential contains additional information for GIPAW reconstruction.
    Valence configuration:
    nl pn  l   occ       Rcut    Rcut US       E pseu
    2P  2  1  0.00      2.450      2.450    -0.080111
    2S  1  0  1.00      3.436      3.436    -0.211252
    Generation configuration:
    2P  2  1  0.00      2.450      2.450    -0.080111
    2S  1  0  1.00      2.450      2.450    -0.211252
    Pseudization used: troullier-martins
]]>
    <PP_INPUTFILE><![CDATA[
 &input
   title='Li',
   zed=3.0,
   rel=1,
   config='1s2 2s1 2p0 3d-2',
   iswitch=3,
   dft='PBE'
 /
 &inputp
   pseudotype=2,
   file_pseudopw='Li.pbe-n-nc.UPF',
   author='TM',
   lloc=0,
   nlcc=.true.,
   tm=.true.
 /
2
2P  2  1  0.00  0.00  2.45  2.45  0.0
2S  1  0  1.00  0.00  2.45  2.45  0.0
]]></PP_INPUTFILE>
  </PP_INFO>
  <!--
 END OF HUMAN READABLE SECTION 
-->
  <PP_HEADER generated="Generated using &quot;atomic&quot; code by A. Dal Corso  v.6.4.1" author="TM" date="18Oct2023" comment="" element="Li" pseudo_type="NC" relativistic="scalar" is_ultrasoft="false" is_paw="false" is_coulomb="false" has_so="false" has_wfc="false" has_gipaw="true" paw_as_gipaw="false" core_correction="true" functional="PBE" z_valence="1.000000000000e0" total_psenergy="-5.044500605706e-1" wfc_cutoff="0.000000000000e0" rho_cutoff="0.000000000000e0" l_max="1" l_max_rho="2" l_local="0" mesh_size="1017" number_of_wfc="2" number_of_proj="1"/>
  <PP_MESH dx="1.250000000000e-2" mesh="1017" xmin="-7.000000000000e0" rmax="1.000000000000e2" zmesh="3.000000000000e0">
    <PP_R>
      3.039606551848387e-4 3.077840095563408e-4 3.116554558055273e-4 3.155755988537513e-4
      3.195450512313400e-4 3.235644331733030e-4 3.276343727162462e-4 3.317555057965038e-4
      3.359284763495035e-4 3.401539364103849e-4 3.444325462158790e-4 3.487649743074729e-4
      3.531518976358700e-4 3.575940016667656e-4 3.620919804879526e-4 3.666465369177728e-4
      3.712583826149344e-4 3.759282381897108e-4 3.806568333165358e-4 3.854449068480193e-4
      3.902932069303915e-4 3.952024911204043e-4 4.001735265037003e-4 4.052070898146716e-4
      4.103039675578270e-4 4.154649561306831e-4 4.206908619482048e-4 4.259825015688081e-4
      4.313407018219493e-4 4.367662999373200e-4 4.422601436756639e-4 4.478230914612423e-4
      4.534560125159646e-4 4.591597869952057e-4 4.649353061253329e-4 4.707834723429605e-4
      4.767051994359582e-4 4.827014126862318e-4 4.887730490143010e-4 4.949210571256955e-4
      5.011463976591908e-4 5.074500433369106e-4 5.138329791163168e-4 5.202962023441107e-4
      5.268407229120724e-4 5.334675634148548e-4 5.401777593097689e-4 5.469723590785753e-4
      5.538524243913113e-4 5.608190302721805e-4 5.678732652675246e-4 5.750162316159141e-4
      5.822490454203733e-4 5.895728368227735e-4 5.969887501804232e-4 6.044979442448717e-4
      6.121015923429691e-4 6.198008825602004e-4 6.275970179263259e-4 6.354912166033588e-4
      6.434847120759031e-4 6.515787533438890e-4 6.597746051177323e-4 6.680735480159464e-4
      6.764768787652446e-4 6.849859104031530e-4 6.936019724831764e-4 7.023264112825446e-4
      7.111605900125693e-4 7.201058890316515e-4 7.291637060609617e-4 7.383354564028390e-4
      7.476225731619344e-4 7.570265074691357e-4 7.665487287083121e-4 7.761907247459046e-4
      7.859540021634110e-4 7.958400864927912e-4 8.058505224548346e-4 8.159868742005278e-4
      8.262507255554526e-4 8.366436802672663e-4 8.471673622562861e-4 8.578234158692334e-4
      8.686135061361663e-4 8.795393190306406e-4 8.906025617331501e-4 9.018049628978755e-4
      9.131482729227896e-4 9.246342642231628e-4 9.362647315085043e-4 9.480414920629892e-4
      9.599663860294143e-4 9.720412766967225e-4 9.842680507911489e-4 9.966486187710199e-4
      1.009184915125272e-3 1.021878898675714e-3 1.034732552883103e-3 1.047747886157060e-3
      1.060926932169889e-3 1.074271750174342e-3 1.087784425325383e-3 1.101467069005994e-3
      1.115321819157091e-3 1.129350840611570e-3 1.143556325432578e-3 1.157940493256018e-3
      1.172505591637376e-3 1.187253896402910e-3 1.202187712005244e-3 1.217309371883448e-3
      1.232621238827644e-3 1.248125705348193e-3 1.263825194049536e-3 1.279722158008721e-3
      1.295819081158710e-3 1.312118478676494e-3 1.328622897376097e-3 1.345334916106520e-3
      1.362257146154689e-3 1.379392231653479e-3 1.396742849994860e-3 1.414311712248247e-3
      1.432101563584113e-3 1.450115183702923e-3 1.468355387269469e-3 1.486825024352667e-3
      1.505526980870889e-3 1.524464179042891e-3 1.543639577844415e-3 1.563056173470537e-3
      1.582716999803826e-3 1.602625128888397e-3 1.622783671409921e-3 1.643195777181684e-3
      1.663864635636739e-3 1.684793476326271e-3 1.705985569424219e-3 1.727444226238242e-3
      1.749172799727128e-3 1.771174685024692e-3 1.793453319970273e-3 1.816012185645910e-3
      1.838854806920257e-3 1.861984752999366e-3 1.885405637984369e-3 1.909121121436195e-3
      1.933134908947382e-3 1.957450752721084e-3 1.982072452157364e-3 2.007003854446853e-3
      2.032248855171880e-3 2.057811398915169e-3 2.083695479876187e-3 2.109905142495249e-3
      2.136444482085461e-3 2.163317645472629e-3 2.190528831643206e-3 2.218082292400391e-3
      2.245982333028489e-3 2.274233312965609e-3 2.302839646484844e-3 2.331805803384006e-3
      2.361136309684039e-3 2.390835748336233e-3 2.420908759938297e-3 2.451360043459479e-3
      2.482194356974782e-3 2.513416518408423e-3 2.545031406286653e-3 2.577043960500024e-3
      2.609459183075258e-3 2.642282138956835e-3 2.675517956798385e-3 2.709171829764070e-3
      2.743249016340010e-3 2.777754841155937e-3 2.812694695817179e-3 2.848074039747113e-3
      2.883898401040211e-3 2.920173377325809e-3 2.956904636642752e-3 2.994097918325042e-3
      3.031759033898605e-3 3.069893867989380e-3 3.108508379242775e-3 3.147608601254737e-3
      3.187200643514505e-3 3.227290692359228e-3 3.267885011940609e-3 3.308989945203671e-3
      3.350611914877862e-3 3.392757424480626e-3 3.435433059333580e-3 3.478645487591502e-3
      3.522401461284219e-3 3.566707817371642e-3 3.611571478812054e-3 3.656999455643826e-3
      3.702998846080768e-3 3.749576837621222e-3 3.796740708171126e-3 3.844497827181210e-3
      3.892855656798480e-3 3.941821753032205e-3 3.991403766934540e-3 4.041609445796032e-3
      4.092446634356150e-3 4.143923276029027e-3 4.196047414144665e-3 4.248827193205690e-3
      4.302270860159958e-3 4.356386765689164e-3 4.411183365513643e-3 4.466669221713610e-3
      4.522853004066977e-3 4.579743491404048e-3 4.637349572979211e-3 4.695680249859907e-3
      4.754744636333085e-3 4.814551961329293e-3 4.875111569864741e-3 4.936432924501472e-3
      4.998525606825901e-3 5.061399318945981e-3 5.125063885007144e-3 5.189529252727364e-3
      5.254805494951500e-3 5.320902811225203e-3 5.387831529388625e-3 5.455602107190143e-3
      5.524225133920417e-3 5.593711332066991e-3 5.664071558989688e-3 5.735316808617128e-3
      5.807458213164505e-3 5.880507044873053e-3 5.954474717771351e-3 6.029372789458767e-3
      6.105212962911393e-3 6.182007088310629e-3 6.259767164894803e-3 6.338505342834086e-3
      6.418233925128978e-3 6.498965369532666e-3 6.580712290497593e-3 6.663487461146476e-3
      6.747303815268130e-3 6.832174449338419e-3 6.918112624566580e-3 7.005131768967344e-3
      7.093245479459059e-3 7.182467523988256e-3 7.272811843680924e-3 7.364292555020814e-3
      7.456923952055200e-3 7.550720508628324e-3 7.645696880642977e-3 7.741867908350525e-3
      7.839248618669703e-3 7.937854227534626e-3 8.037700142272291e-3 8.138801964010012e-3
      8.241175490113132e-3 8.344836716653383e-3 8.449801840908314e-3 8.556087263892145e-3
      8.663709592918449e-3 8.772685644195104e-3 8.883032445451828e-3 8.994767238600829e-3
      9.107907482430855e-3 9.222470855335194e-3 9.338475258073942e-3 9.455938816571033e-3
      9.574879884746478e-3 9.695317047384160e-3 9.817269123035764e-3 9.940755166961237e-3
      1.006579447410617e-2 1.019240658211670e-2 1.032061127439230e-2 1.045042858317696e-2
      1.058187879268932e-2 1.071498244229202e-2 1.084976032970114e-2 1.098623351423579e-2
      1.112442332010869e-2 1.126435133975819e-2 1.140603943722201e-2 1.154950975155367e-2
      1.169478470028168e-2 1.184188698291232e-2 1.199083958447656e-2 1.214166577912141e-2
      1.229438913374667e-2 1.244903351168721e-2 1.260562307644169e-2 1.276418229544822e-2
      1.292473594390734e-2 1.308730910865327e-2 1.325192719207377e-2 1.341861591607929e-2
      1.358740132612207e-2 1.375830979526585e-2 1.393136802830664e-2 1.410660306594544e-2
      1.428404228901340e-2 1.446371342275012e-2 1.464564454113581e-2 1.482986407127784e-2
      1.501640079785261e-2 1.520528386760314e-2 1.539654279389338e-2 1.559020746131966e-2
      1.578630813038031e-2 1.598487544220383e-2 1.618594042333666e-2 1.638953449059119e-2
      1.659568945595465e-2 1.680443753155979e-2 1.701581133471814e-2 1.722984389301646e-2
      1.744656864947747e-2 1.766601946778528e-2 1.788823063757671e-2 1.811323687979917e-2
      1.834107335213575e-2 1.857177565449881e-2 1.880537983459246e-2 1.904192239354510e-2
      1.928144029161283e-2 1.952397095395451e-2 1.976955227647958e-2 2.001822263176932e-2
      2.027002087507265e-2 2.052498635037741e-2 2.078315889655781e-2 2.104457885359947e-2
      2.130928706890253e-2 2.157732490366418e-2 2.184873423934146e-2 2.212355748419520e-2
      2.240183757991660e-2 2.268361800833674e-2 2.296894279822086e-2 2.325785653214789e-2
      2.355040435347653e-2 2.384663197339909e-2 2.414658567808384e-2 2.445031233590738e-2
      2.475785940477797e-2 2.506927493955080e-2 2.538460759953678e-2 2.570390665610558e-2
      2.602722200038439e-2 2.635460415105356e-2 2.668610426224018e-2 2.702177413151109e-2
      2.736166620796627e-2 2.770583360043419e-2 2.805433008577014e-2 2.840721011725895e-2
      2.876452883312352e-2 2.912634206514015e-2 2.949270634736244e-2 2.986367892495490e-2
      3.023931776313750e-2 3.061968155624298e-2 3.100482973688785e-2 3.139482248525890e-2
      3.178972073851655e-2 3.218958620031628e-2 3.259448135045004e-2 3.300446945460878e-2
      3.341961457426792e-2 3.383998157669703e-2 3.426563614509547e-2 3.469664478885556e-2
      3.513307485395480e-2 3.557499453347874e-2 3.602247287827644e-2 3.647557980774965e-2
      3.693438612077797e-2 3.739896350678126e-2 3.786938455692126e-2 3.834572277544415e-2
      3.882805259116565e-2 3.931644936910084e-2 3.981098942223990e-2 4.031175002347223e-2
      4.081880941766064e-2 4.133224683386707e-2 4.185214249773242e-2 4.237857764401188e-2
      4.291163452926808e-2 4.345139644472390e-2 4.399794772927674e-2 4.455137378267682e-2
      4.511176107887091e-2 4.567919717951415e-2 4.625377074765177e-2 4.683557156157272e-2
      4.742469052883788e-2 4.802121970048443e-2 4.862525228540914e-2 4.923688266493229e-2
      4.985620640754504e-2 5.048332028384220e-2 5.111832228164284e-2 5.176131162130101e-2
      5.241238877120922e-2 5.307165546349677e-2 5.373921470992560e-2 5.441517081798615e-2
      5.509962940719552e-2 5.579269742560085e-2 5.649448316649005e-2 5.720509628531292e-2
      5.792464781681506e-2 5.865325019238719e-2 5.939101725763283e-2 6.013806429015695e-2
      6.089450801757823e-2 6.166046663576811e-2 6.243605982731903e-2 6.322140878024511e-2
      6.401663620691806e-2 6.482186636324119e-2 6.563722506806470e-2 6.646283972284507e-2
      6.729883933155183e-2 6.814535452082469e-2 6.900251756038422e-2 6.987046238369929e-2
      7.074932460891437e-2 7.163924156004021e-2 7.254035228841098e-2 7.345279759441130e-2
      7.437672004947662e-2 7.531226401837031e-2 7.625957568174084e-2 7.721880305896295e-2
      7.819009603126591e-2 7.917360636515274e-2 8.016948773611409e-2 8.117789575264027e-2
      8.219898798053551e-2 8.323292396753788e-2 8.427986526824883e-2 8.533997546937671e-2
      8.641342021529720e-2 8.750036723393578e-2 8.860098636297554e-2 8.971544957639464e-2
      9.084393101133758e-2 9.198660699532441e-2 9.314365607380248e-2 9.431525903804431e-2
      9.550159895339672e-2 9.670286118788514e-2 9.791923344117764e-2 9.915090577391355e-2
      1.003980706374007e-1 1.016609229036864e-1 1.029396598960067e-1 1.042344814196180e-1
      1.055455897930178e-1 1.068731898795569e-1 1.082174891194499e-1 1.095786975621881e-1
      1.109570278993599e-1 1.123526954978848e-1 1.137659184336646e-1 1.151969175256582e-1
      1.166459163703852e-1 1.181131413768630e-1 1.195988218019839e-1 1.211031897863371e-1
      1.226264803904808e-1 1.241689316316710e-1 1.257307845210524e-1 1.273122831013163e-1
      1.289136744848338e-1 1.305352088922664e-1 1.321771396916643e-1 1.338397234380556e-1
      1.355232199135331e-1 1.372278921678462e-1 1.389540065595029e-1 1.407018327973885e-1
      1.424716439829089e-1 1.442637166526625e-1 1.460783308216498e-1 1.479157700270267e-1
      1.497763213724073e-1 1.516602755727246e-1 1.535679269996553e-1 1.554995737276162e-1
      1.574555175803383e-1 1.594360641780281e-1 1.614415229851209e-1 1.634722073586354e-1
      1.655284345971366e-1 1.676105259903137e-1 1.697188068691831e-1 1.718536066569214e-1
      1.740152589203387e-1 1.762041014219992e-1 1.784204761729968e-1 1.806647294863958e-1
      1.829372120313422e-1 1.852382788878572e-1 1.875682896023186e-1 1.899276082436411e-1
      1.923166034601623e-1 1.947356485372453e-1 1.971851214556051e-1 1.996654049503686e-1
      2.021768865708779e-1 2.047199587412460e-1 2.072950188216734e-1 2.099024691705368e-1
      2.125427172072579e-1 2.152161754759641e-1 2.179232617099492e-1 2.206643988969447e-1
      2.234400153452132e-1 2.262505447504715e-1 2.290964262636575e-1 2.319781045595474e-1
      2.348960299062379e-1 2.378506582355009e-1 2.408424512140241e-1 2.438718763155474e-1
      2.469394068939061e-1 2.500455222569940e-1 2.531907077416562e-1 2.563754547895236e-1
      2.596002610238017e-1 2.628656303270256e-1 2.661720729197925e-1 2.695201054404843e-1
      2.729102510259940e-1 2.763430393934669e-1 2.798190069230692e-1 2.833386967417995e-1
      2.869026588083527e-1 2.905114499990527e-1 2.941656341948653e-1 2.978657823695054e-1
      3.016124726786533e-1 3.054062905502927e-1 3.092478287761844e-1 3.131376876044921e-1
      3.170764748335714e-1 3.210648059069407e-1 3.251033040094444e-1 3.291926001646273e-1
      3.333333333333335e-1 3.375261505135450e-1 3.417717068414765e-1 3.460706656939418e-1
      3.504236987920082e-1 3.548314863059532e-1 3.592947169615440e-1 3.638140881476508e-1
      3.683903060252161e-1 3.730240856375937e-1 3.777161510222756e-1 3.824672353240242e-1
      3.872780809094278e-1 3.921494394828970e-1 3.970820722041195e-1 4.020767498069937e-1
      4.071342527200567e-1 4.122553711884284e-1 4.174409053972883e-1 4.226916655969067e-1
      4.280084722292473e-1 4.333921560561638e-1 4.388435582892074e-1 4.443635307210678e-1
      4.499529358586678e-1 4.556126470579323e-1 4.613435486602507e-1 4.671465361306579e-1
      4.730225161977526e-1 4.789724069953750e-1 4.849971382060673e-1 4.910976512063387e-1
      4.972748992137570e-1 5.035298474358910e-1 5.098634732211265e-1 5.162767662113779e-1
      5.227707284967231e-1 5.293463747719813e-1 5.360047324952611e-1 5.427468420485035e-1
      5.495737569000429e-1 5.564865437692145e-1 5.634862827930307e-1 5.705740676949550e-1
      5.777510059557986e-1 5.850182189867664e-1 5.923768423046797e-1 5.998280257094032e-1
      6.073729334635033e-1 6.150127444741669e-1 6.227486524774077e-1 6.305818662245901e-1
      6.385136096712990e-1 6.465451221685850e-1 6.546776586566160e-1 6.629124898607643e-1
      6.712509024901592e-1 6.796941994387388e-1 6.882436999888291e-1 6.969007400172855e-1
      7.056666722042252e-1 7.145428662443867e-1 7.235307090611478e-1 7.326316050232342e-1
      7.418469761641563e-1 7.511782624044031e-1 7.606269217764349e-1 7.701944306525017e-1
      7.798822839753306e-1 7.896919954917138e-1 7.996250979890331e-1 8.096831435347630e-1
      8.198677037189835e-1 8.301803698999439e-1 8.406227534527165e-1 8.511964860209760e-1
      8.619032197719491e-1 8.727446276545674e-1 8.837224036608692e-1 8.948382630906904e-1
      9.060939428196821e-1 9.174912015707019e-1 9.290318201886173e-1 9.407176019185673e-1
      9.525503726877217e-1 9.645319813905873e-1 9.766643001779009e-1 9.889492247491562e-1
      1.001388674648812e0 1.013984593566222e0 1.026738949639344e0 1.039653735762265e0
      1.052730969896590e0 1.065972695386759e0 1.079380981279321e0 1.092957922646225e0
      1.106705640912183e0 1.120626284186143e0 1.134722027596940e0 1.148995073633159e0
      1.163447652487281e0 1.178082022404157e0 1.192900470033860e0 1.207905310788981e0
      1.223098889206415e0 1.238483579313702e0 1.254061784999971e0 1.269835940391554e0
      1.285808510232325e0 1.301981990268818e0 1.318358907640193e0 1.334941821273109e0
      1.351733322281559e0 1.368736034371738e0 1.385952614252003e0 1.403385752047988e0
      1.421038171722940e0 1.438912631503349e0 1.457011924309920e0 1.475338878193979e0
      1.493896356779356e0 1.512687259709835e0 1.531714523102230e0 1.550981120005158e0
      1.570490060863581e0 1.590244393989202e0 1.610247206036760e0 1.630501622486336e0
      1.651010808131706e0 1.671777967574854e0 1.692806345726694e0 1.714099228314096e0
      1.735659942393284e0 1.757491856869698e0 1.779598383024393e0 1.801982975047056e0
      1.824649130575734e0 1.847600391243342e0 1.870840343231053e0 1.894372617828649e0
      1.918200892001911e0 1.942328888967159e0 1.966760378773007e0 1.991499178889442e0
      2.016549154804316e0 2.041914220627330e0 2.067598339701623e0 2.093605525223056e0
      2.119939840867278e0 2.146605401424687e0 2.173606373443372e0 2.200946975880143e0
      2.228631480759758e0 2.256664213842427e0 2.285049555299727e0 2.313791940399013e0
      2.342895860196432e0 2.372365862238666e0 2.402206551273490e0 2.432422589969278e0
      2.463018699643551e0 2.493999661000694e0 2.525370314878950e0 2.557135563006811e0
      2.589300368768926e0 2.621869757981632e0 2.654848819678259e0 2.688242706904292e0
      2.722056637522552e0 2.756295895028491e0 2.790965829375756e0 2.826071857812126e0
      2.861619465725965e0 2.897614207503336e0 2.934061707395871e0 2.970967660399580e0
      3.008337833144709e0 3.046178064796776e0 3.084494267968966e0 3.123292429645979e0
      3.162578612119510e0 3.202358953935503e0 3.242639670853296e0 3.283427056816863e0
      3.324727484938242e0 3.366547408493352e0 3.408893361930335e0 3.451771961890565e0
      3.495189908242526e0 3.539153985128670e0 3.583671062025453e0 3.628748094816715e0
      3.674392126880535e0 3.720610290189791e0 3.767409806426530e0 3.814797988110376e0
      3.862782239741133e0 3.911370058955738e0 3.960569037699802e0 4.010386863413847e0
      4.060831320234493e0 4.111910290210754e0 4.163631754535604e0 4.216003794793077e0
      4.269034594221014e0 4.322732438989713e0 4.377105719496675e0 4.432162931677596e0
      4.487912678333899e0 4.544363670476922e0 4.601524728689034e0 4.659404784501880e0
      4.718012881791936e0 4.777358178193645e0 4.837449946530309e0 4.898297576262983e0
      4.959910574957615e0 5.022298569770597e0 5.085471308953055e0 5.149438663374009e0
      5.214210628062726e0 5.279797323770475e0 5.346208998551892e0 5.413456029366281e0
      5.481548923699020e0 5.550498321203384e0 5.620314995363014e0 5.691009855175287e0
      5.762593946855883e0 5.835078455564763e0 5.908474707153883e0 5.982794169936883e0
      6.058048456481022e0 6.134249325421685e0 6.211408683299672e0 6.289538586421631e0
      6.368651242743886e0 6.448759013779939e0 6.529874416532000e0 6.612010125446777e0
      6.695178974395891e0 6.779393958681207e0 6.864668237065345e0 6.951015133827806e0
      7.038448140846875e0 7.126980919707784e0 7.216627303837356e0 7.307401300665490e0
      7.399317093813882e0 7.492389045312208e0 7.586631697842246e0 7.682059777010196e0
      7.778688193647574e0 7.876532046141076e0 7.975606622791717e0 8.075927404203663e0
      8.177510065703121e0 8.280370479787615e0 8.384524718606125e0 8.489989056470366e0
      8.596779972397691e0 8.704914152685992e0 8.814408493520935e0 8.925280103616045e0
      9.037546306885970e0 9.151224645153372e0 9.266332880889893e0 9.382888999991552e0
      9.500911214589097e0 9.620417965893678e0 9.741427927078318e0 9.863960006195656e0
      9.988033349132342e0 1.011366734260065e1 1.024088161716765e1 1.036969605032256e1
      1.050013076958265e1 1.063220615563817e1 1.076594284553690e1 1.090136173590872e1
      1.103848398623078e1 1.117733102213365e1 1.131792453874919e1 1.146028650410040e1
      1.160443916253402e1 1.175040503819619e1 1.189820693855197e1 1.204786795794898e1
      1.219941148122600e1 1.235286118736687e1 1.250824105320034e1 1.266557535714659e1
      1.282488868301072e1 1.298620592382400e1 1.314955228573352e1 1.331495329194065e1
      1.348243478668914e1 1.365202293930327e1 1.382374424827693e1 1.399762554541400e1
      1.417369400002094e1 1.435197712315198e1 1.453250277190785e1 1.471529915378842e1
      1.490039483110029e1 1.508781872541960e1 1.527760012211117e1 1.546976867490433e1
      1.566435441052644e1 1.586138773339457e1 1.606089943036628e1 1.626292067555014e1
      1.646748303517674e1 1.667461847253092e1 1.688435935294622e1 1.709673844886191e1
      1.731178894494382e1 1.752954444326949e1 1.775003896857855e1 1.797330697358919e1
      1.819938334438143e1 1.842830340584815e1 1.866010292721472e1 1.889481812762794e1
      1.913248568181541e1 1.937314272581601e1 1.961682686278247e1 1.986357616885700e1
      2.011342919912067e1 2.036642499361779e1 2.062260308345598e1 2.088200349698295e1
      2.114466676604112e1 2.141063393230063e1 2.167994655367234e1 2.195264671080125e1
      2.222877701364174e1 2.250838060811538e1 2.279150118285272e1 2.307818297601955e1
      2.336847078222931e1 2.366240995954231e1 2.396004643655302e1 2.426142671956656e1
      2.456659789986528e1 2.487560766106700e1 2.518850428657556e1 2.550533666712530e1
      2.582615430842030e1 2.615100733886972e1 2.647994651742047e1 2.681302324148844e1
      2.715028955498938e1 2.749179815647101e1 2.783760240734710e1 2.818775634023536e1
      2.854231466740022e1 2.890133278930163e1 2.926486680325162e1 2.963297351217944e1
      3.000571043350730e1 3.038313580813748e1 3.076530860955263e1 3.115228855303056e1
      3.154413610497472e1 3.194091249236232e1 3.234267971231115e1 3.274950054176669e1
      3.316143854731129e1 3.357855809509638e1 3.400092436089992e1 3.442860334031028e1
      3.486166185903807e1 3.530016758335798e1 3.574418903068152e1 3.619379558026324e1
      3.664905748404120e1 3.711004587761412e1 3.757683279135641e1 3.804949116167301e1
      3.852809484239593e1 3.901271861632397e1 3.950343820690778e1 4.000033029008182e1
      4.050347250624499e1 4.101294347239222e1 4.152882279439849e1 4.205119107945739e1
      4.258012994867631e1 4.311572204982966e1 4.365805107027291e1 4.420720175001889e1
      4.476325989497851e1 4.532631239036832e1 4.589644721428624e1 4.647375345145844e1
      4.705832130715900e1 4.765024212130467e1 4.824960838272700e1 4.885651374362373e1
      4.947105303419224e1 5.009332227744700e1 5.072341870422321e1 5.136144076836960e1
      5.200748816213171e1 5.266166183172921e1 5.332406399312890e1 5.399479814801612e1
      5.467396909996729e1 5.536168297082537e1 5.605804721728187e1 5.676317064766705e1
      5.747716343895145e1 5.820013715396144e1 5.893220475881082e1 5.967348064055228e1
      6.042408062505046e1 6.118412199508001e1 6.195372350865139e1 6.273300541756683e1
      6.352208948621006e1 6.432109901057220e1 6.513015883751699e1 6.594939538428853e1
      6.677893665826395e1 6.761891227695502e1 6.846945348826113e1 6.933069319097688e1
      7.020276595555818e1 7.108580804514869e1 7.197995743687144e1 7.288535384338807e1
      7.380213873472906e1 7.473045536039904e1 7.567044877175937e1 7.662226584469302e1
      7.758605530255410e1 7.856196773940621e1 7.955015564355323e1 8.055077342136560e1
      8.156397742140689e1 8.258992595886346e1 8.362877934028154e1 8.468069988861568e1
      8.574585196859166e1 8.682440201238901e1 8.791651854564641e1 8.902237221379405e1
      9.014213580871759e1 9.127598429575686e1 9.242409484104474e1 9.358664683918985e1
      9.476382194130698e1 9.595580408340103e1 9.716277951510673e1 9.838493682879085e1
      9.962246698902021e1
      </PP_R>
    <PP_RAB>
      3.799508189810485e-6 3.847300119454260e-6 3.895693197569092e-6 3.944694985671892e-6
      3.994313140391750e-6 4.044555414666288e-6 4.095429658953077e-6 4.146943822456298e-6
      4.199105954368795e-6 4.251924205129812e-6 4.305406827698487e-6 4.359562178843411e-6
      4.414398720448376e-6 4.469925020834570e-6 4.526149756099408e-6 4.583081711472160e-6
      4.640729782686681e-6 4.699102977371385e-6 4.758210416456698e-6 4.818061335600241e-6
      4.878665086629894e-6 4.940031139005053e-6 5.002169081296254e-6 5.065088622683395e-6
      5.128799594472837e-6 5.193311951633540e-6 5.258635774352561e-6 5.324781269610101e-6
      5.391758772774367e-6 5.459578749216501e-6 5.528251795945799e-6 5.597788643265528e-6
      5.668200156449558e-6 5.739497337440072e-6 5.811691326566661e-6 5.884793404287007e-6
      5.958814992949477e-6 6.033767658577898e-6 6.109663112678763e-6 6.186513214071194e-6
      6.264329970739885e-6 6.343125541711382e-6 6.422912238953959e-6 6.503702529301384e-6
      6.585509036400905e-6 6.668344542685684e-6 6.752221991372111e-6 6.837154488482192e-6
      6.923155304891392e-6 7.010237878402255e-6 7.098415815844057e-6 7.187702895198926e-6
      7.278113067754666e-6 7.369660460284669e-6 7.462359377255292e-6 7.556224303060898e-6
      7.651269904287114e-6 7.747511032002506e-6 7.844962724079073e-6 7.943640207541986e-6
      8.043558900948788e-6 8.144734416798611e-6 8.247182563971652e-6 8.350919350199330e-6
      8.455960984565557e-6 8.562323880039413e-6 8.670024656039706e-6 8.779080141031807e-6
      8.889507375157116e-6 9.001323612895646e-6 9.114546325762021e-6 9.229193205035488e-6
      9.345282164524180e-6 9.462831343364197e-6 9.581859108853902e-6 9.702384059323810e-6
      9.824425027042638e-6 9.948001081159889e-6 1.007313153068543e-5 1.019983592750660e-5
      1.032813406944316e-5 1.045804600334083e-5 1.058959202820358e-5 1.072279269836542e-5
      1.085766882670208e-5 1.099424148788301e-5 1.113253202166438e-5 1.127256203622345e-5
      1.141435341153487e-5 1.155792830278954e-5 1.170330914385630e-5 1.185051865078736e-5
      1.199957982536768e-5 1.215051595870903e-5 1.230335063488936e-5 1.245810773463775e-5
      1.261481143906590e-5 1.277348623344643e-5 1.293415691103879e-5 1.309684857696325e-5
      1.326158665212361e-5 1.342839687717927e-5 1.359730531656729e-5 1.376833836257493e-5
      1.394152273946363e-5 1.411688550764464e-5 1.429445406790723e-5 1.447425616570023e-5
      1.465631989546720e-5 1.484067370503637e-5 1.502734640006554e-5 1.521636714854310e-5
      1.540776548534555e-5 1.560157131685242e-5 1.579781492561920e-5 1.599652697510902e-5
      1.619773851448388e-5 1.640148098345618e-5 1.660778621720121e-5 1.681668645133150e-5
      1.702821432693361e-5 1.724240289566849e-5 1.745928562493575e-5 1.767889640310309e-5
      1.790126954480141e-5 1.812643979628654e-5 1.835444234086836e-5 1.858531280440834e-5
      1.881908726088611e-5 1.905580223803614e-5 1.929549472305519e-5 1.953820216838171e-5
      1.978396249754783e-5 2.003281411110496e-5 2.028479589262401e-5 2.053994721477105e-5
      2.079830794545924e-5 2.105991845407839e-5 2.132481961780273e-5 2.159305282797802e-5
      2.186465999658910e-5 2.213968356280865e-5 2.241816649962842e-5 2.270015232057387e-5
      2.298568508650322e-5 2.327480941249208e-5 2.356757047480462e-5 2.386401401795244e-5
      2.416418636184228e-5 2.446813440901355e-5 2.477590565196706e-5 2.508754818058566e-5
      2.540311068964849e-5 2.572264248643962e-5 2.604619349845234e-5 2.637381428119061e-5
      2.670555602606826e-5 2.704147056840786e-5 2.738161039554008e-5 2.772602865500490e-5
      2.807477916285611e-5 2.842791641207011e-5 2.878549558106055e-5 2.914757254230007e-5
      2.951420387105049e-5 2.988544685420291e-5 3.026135949922871e-5 3.064200054324349e-5
      3.102742946218477e-5 3.141770648010529e-5 3.181289257858317e-5 3.221304950625030e-5
      3.261823978844072e-5 3.302852673696044e-5 3.344397445997981e-5 3.386464787205088e-5
      3.429061270425013e-5 3.472193551444921e-5 3.515868369771474e-5 3.560092549683891e-5
      3.604873001300264e-5 3.650216721657262e-5 3.696130795803441e-5 3.742622397906302e-5
      3.789698792373256e-5 3.837367334986726e-5 3.885635474053470e-5 3.934510751568422e-5
      3.984000804393132e-5 4.034113365449035e-5 4.084856264925762e-5 4.136237431504589e-5
      4.188264893597329e-5 4.240946780600783e-5 4.294291324166975e-5 4.348306859489377e-5
      4.403001826605273e-5 4.458384771714553e-5 4.514464348515068e-5 4.571249319554783e-5
      4.628748557600960e-5 4.686971047026527e-5 4.745925885213907e-5 4.805622283976513e-5
      4.866069570998101e-5 4.927277191290257e-5 4.989254708668176e-5 5.052011807245042e-5
      5.115558292945187e-5 5.179904095036284e-5 5.245059267680832e-5 5.311033991507113e-5
      5.377838575199947e-5 5.445483457111457e-5 5.513979206892054e-5 5.583336527142012e-5
      5.653566255083722e-5 5.724679364255058e-5 5.796686966224014e-5 5.869600312324885e-5
      5.943430795416357e-5 6.018189951661617e-5 6.093889462330926e-5 6.170541155626839e-5
      6.248157008532377e-5 6.326749148682477e-5 6.406329856258930e-5 6.486911565909206e-5
      6.568506868689376e-5 6.651128514031504e-5 6.734789411735782e-5 6.819502633987678e-5
      6.905281417400522e-5 6.992139165083739e-5 7.080089448737111e-5 7.169146010771410e-5
      7.259322766455631e-5 7.350633806091318e-5 7.443093397214188e-5 7.536715986823459e-5