 vasp.5.4.1 24Jun15 (build Jun 17 2016 15:57:28) complex                        
  
 executed on           IFC91_ompi date 2016.12.07  20:11:50
 running on   15 total cores
 each image running on    5 cores
 distrk:  each k-point on    5 cores,    1 groups
 distr:  one band on NCORES_PER_BAND=   5 cores,    1 groups


--------------------------------------------------------------------------------------------------------


 INCAR:
 POTCAR:    PAW_PBE Li 17Jan2003                  
 POTCAR:   PAW_PBE O 08Apr2002                    
 POTCAR:    PAW_PBE P 17Jan2003                   
 POTCAR:   PAW_PBE Fe 06Sep2000                   

 ----------------------------------------------------------------------------- 
|                                                                             |
|           W    W    AA    RRRRR   N    N  II  N    N   GGGG   !!!           |
|           W    W   A  A   R    R  NN   N  II  NN   N  G    G  !!!           |
|           W    W  A    A  R    R  N N  N  II  N N  N  G       !!!           |
|           W WW W  AAAAAA  RRRRR   N  N N  II  N  N N  G  GGG   !            |
|           WW  WW  A    A  R   R   N   NN  II  N   NN  G    G                |
|           W    W  A    A  R    R  N    N  II  N    N   GGGG   !!!           |
|                                                                             |
|      For optimal performance we recommend to set                            |
|        NCORE= 4 - approx SQRT( number of cores)                             |
|      NCORE specifies how many cores store one orbital (NPAR=cpu/NCORE).     |
|      This setting can  greatly improve the performance of VASP for DFT.     |
|      The default, NPAR=number of cores might be grossly inefficient         |
|      on modern multi-core architectures or massively parallel machines.     |
|      Do your own testing !!!!                                               |
|      Unfortunately you need to use the default for GW and RPA calculations. |
|      (for HF NCORE is supported but not extensively tested yet)             |
|                                                                             |
 ----------------------------------------------------------------------------- 

 POTCAR:    PAW_PBE Li 17Jan2003                  
   VRHFIN =Li: s1p0                                                             
   LEXCH  = PE                                                                  
   EATOM  =     5.3001 eV,     .3895 Ry                                         
                                                                                
   TITEL  = PAW_PBE Li 17Jan2003                                                
   LULTRA =        F    use ultrasoft PP ?                                      
   IUNSCR =        1    unscreen: 0-lin 1-nonlin 2-no                           
   RPACOR =    1.500    partial core radius                                     
   POMASS =    7.010; ZVAL   =    1.000    mass and valenz                      
   RCORE  =    2.050    outmost cutoff radius                                   
   RWIGS  =    2.600; RWIGS  =    1.376    wigner-seitz radius (au A)           
   ENMAX  =  140.000; ENMIN  =  100.000 eV                                      
   ICORE  =        2    local potential                                         
   LCOR   =        T    correct aug charges                                     
   LPAW   =        T    paw PP                                                  
   EAUG   =  331.638                                                            
   DEXC   =    -.010                                                            
   RMAX   =    4.263    core radius for proj-oper                               
   RAUG   =    1.300    factor for augmentation sphere                          
   RDEP   =    2.094    radius for radial grids                                 
   QCUT   =   -2.932; QGAM   =    5.865    optimization parameters              
                                                                                
   Description                                                                  
     l     E      TYP  RCUT    TYP  RCUT                                        
     0   .000     23  2.050                                                     
     0  2.000     23  2.050                                                     
     1   .000     23  2.050                                                     
     2   .000     23  2.050                                                     
  local pseudopotential read in
  partial core-charges read in
  atomic valenz-charges read in
  non local Contribution for L=           0  read in
    real space projection operators read in
  non local Contribution for L=           0  read in
    real space projection operators read in
  non local Contribution for L=           1  read in
    real space projection operators read in
    PAW grid and wavefunctions read in
 
   number of l-projection  operators is LMAX  =           3
   number of lm-projection operators is LMMAX =           5
 
 POTCAR:   PAW_PBE O 08Apr2002                    
   VRHFIN =O: s2p4                                                              
   LEXCH  = PE                                                                  
   EATOM  =   432.3788 eV,   31.7789 Ry                                         
                                                                                
   TITEL  = PAW_PBE O 08Apr2002                                                 
   LULTRA =        F    use ultrasoft PP ?                                      
   IUNSCR =        0    unscreen: 0-lin 1-nonlin 2-no                           
   RPACOR =     .000    partial core radius                                     
   POMASS =   16.000; ZVAL   =    6.000    mass and valenz                      
   RCORE  =    1.520    outmost cutoff radius                                   
   RWIGS  =    1.550; RWIGS  =     .820    wigner-seitz radius (au A)           
   ENMAX  =  400.000; ENMIN  =  300.000 eV                                      
   ICORE  =        2    local potential                                         
   LCOR   =        T    correct aug charges                                     
   LPAW   =        T    paw PP                                                  
   EAUG   =  605.392                                                            
   DEXC   =     .000                                                            
   RMAX   =    2.264    core radius for proj-oper                               
   RAUG   =    1.300    factor for augmentation sphere                          
   RDEP   =    1.550    radius for radial grids                                 
   QCUT   =   -5.520; QGAM   =   11.041    optimization parameters              
                                                                                
   Description                                                                  
     l     E      TYP  RCUT    TYP  RCUT                                        
     0   .000     23  1.200                                                     
     0  -.700     23  1.200                                                     
     1   .000     23  1.520                                                     
     1   .600     23  1.520                                                     
     2   .000      7  1.500                                                     
  local pseudopotential read in
  atomic valenz-charges read in
  non local Contribution for L=           0  read in
    real space projection operators read in
  non local Contribution for L=           0  read in
    real space projection operators read in
  non local Contribution for L=           1  read in
    real space projection operators read in
  non local Contribution for L=           1  read in
    real space projection operators read in
    PAW grid and wavefunctions read in
 
   number of l-projection  operators is LMAX  =           4
   number of lm-projection operators is LMMAX =           8
 
 POTCAR:    PAW_PBE P 17Jan2003                   
   VRHFIN =P : s2p3                                                             
   LEXCH  = PE                                                                  
   EATOM  =   176.0430 eV,   12.9388 Ry                                         
                                                                                
   TITEL  = PAW_PBE P 17Jan2003                                                 
   LULTRA =        F    use ultrasoft PP ?                                      
   IUNSCR =        1    unscreen: 0-lin 1-nonlin 2-no                           
   RPACOR =    1.500    partial core radius                                     
   POMASS =   30.974; ZVAL   =    5.000    mass and valenz                      
   RCORE  =    1.900    outmost cutoff radius                                   
   RWIGS  =    2.330; RWIGS  =    1.233    wigner-seitz radius (au A)           
   ENMAX  =  270.000; ENMIN  =  191.280 eV                                      
   ICORE  =        2    local potential                                         
   LCOR   =        T    correct aug charges                                     
   LPAW   =        T    paw PP                                                  
   EAUG   =  342.924                                                            
   DEXC   =    -.002                                                            
   RMAX   =    2.887    core radius for proj-oper                               
   RAUG   =    1.300    factor for augmentation sphere                          
   RDEP   =    1.931    radius for radial grids                                 
   QCUT   =   -4.330; QGAM   =    8.659    optimization parameters              
                                                                                
   Description                                                                  
     l     E      TYP  RCUT    TYP  RCUT                                        
     0   .000     23  1.900                                                     
     0   .000     23  1.900                                                     
     1   .000     23  1.900                                                     
     1   .000     23  1.900                                                     
     2   .000     23  1.900                                                     
  local pseudopotential read in
  partial core-charges read in
  atomic valenz-charges read in
  non local Contribution for L=           0  read in
    real space projection operators read in
  non local Contribution for L=           0  read in
    real space projection operators read in
  non local Contribution for L=           1  read in
    real space projection operators read in
  non local Contribution for L=           1  read in
    real space projection operators read in
    PAW grid and wavefunctions read in
 
   number of l-projection  operators is LMAX  =           4
   number of lm-projection operators is LMMAX =           8
 
 POTCAR:   PAW_PBE Fe 06Sep2000                   
   VRHFIN =Fe:  d7 s1                                                           
   LEXCH  = PE                                                                  
   EATOM  =   594.4687 eV,   43.6922 Ry                                         
                                                                                
   TITEL  = PAW_PBE Fe 06Sep2000                                                
   LULTRA =        F    use ultrasoft PP ?                                      
   IUNSCR =        1    unscreen: 0-lin 1-nonlin 2-no                           
   RPACOR =    2.000    partial core radius                                     
   POMASS =   55.847; ZVAL   =    8.000    mass and valenz                      
   RCORE  =    2.300    outmost cutoff radius                                   
   RWIGS  =    2.460; RWIGS  =    1.302    wigner-seitz radius (au A)           
   ENMAX  =  267.883; ENMIN  =  200.912 eV                                      
   RCLOC  =    1.701    cutoff for local pot                                    
   LCOR   =        T    correct aug charges                                     
   LPAW   =        T    paw PP                                                  
   EAUG   =  511.368                                                            
   DEXC   =    -.022                                                            
   RMAX   =    2.817    core radius for proj-oper                               
   RAUG   =    1.300    factor for augmentation sphere                          
   RDEP   =    2.442    radius for radial grids                                 
   QCUT   =   -4.437; QGAM   =    8.874    optimization parameters              
                                                                                
   Description                                                                  
     l     E      TYP  RCUT    TYP  RCUT                                        
     2   .000     23  2.300                                                     
     2   .000     23  2.300                                                     
     0   .000     23  2.300                                                     
     0   .000     23  2.300                                                     
     1  -.200     23  2.300                                                     
     1   .000     23  2.300                                                     
     3   .000      7   .000                                                     
  local pseudopotential read in
  partial core-charges read in
  atomic valenz-charges read in
  non local Contribution for L=           2  read in
    real space projection operators read in
  non local Contribution for L=           2  read in
    real space projection operators read in
  non local Contribution for L=           0  read in
    real space projection operators read in
  non local Contribution for L=           0  read in
    real space projection operators read in
  non local Contribution for L=           1  read in
    real space projection operators read in
  non local Contribution for L=           1  read in
    real space projection operators read in
    PAW grid and wavefunctions read in
 
   number of l-projection  operators is LMAX  =           6
   number of lm-projection operators is LMMAX =          18
 
 Optimization of the real space projectors (new method)

 maximal supplied QI-value         = 18.33
 optimisation between [QCUT,QGAM] = [ 10.63, 21.45] = [ 31.65,128.80] Ry 
 Optimized for a Real-space Cutoff    1.13 Angstroem

   l    n(q)    QCUT    max X(q) W(low)/X(q) W(high)/X(q)  e(spline) 
   0      7    10.632    30.666    0.45E-04    0.40E-04    0.12E-07
   0      7    10.632    39.284    0.21E-03    0.37E-03    0.66E-07
   1      7    10.632     4.214    0.48E-03    0.63E-04    0.43E-07
 Optimization of the real space projectors (new method)

 maximal supplied QI-value         = 24.76
 optimisation between [QCUT,QGAM] = [ 10.64, 21.29] = [ 31.73,126.92] Ry 
 Optimized for a Real-space Cutoff    1.24 Angstroem

   l    n(q)    QCUT    max X(q) W(low)/X(q) W(high)/X(q)  e(spline) 
   0      8    10.645     4.192    0.70E-04    0.97E-04    0.61E-07
   0      8    10.645     8.473    0.43E-03    0.71E-03    0.17E-06
   1      7    10.645     2.474    0.95E-04    0.12E-03    0.31E-07
   1      7    10.645     3.912    0.31E-03    0.57E-03    0.16E-06
 Optimization of the real space projectors (new method)

 maximal supplied QI-value         = 19.84
 optimisation between [QCUT,QGAM] = [ 10.71, 21.43] = [ 32.15,128.60] Ry 
 Optimized for a Real-space Cutoff    1.20 Angstroem

   l    n(q)    QCUT    max X(q) W(low)/X(q) W(high)/X(q)  e(spline) 
   0      8    10.715     6.651    0.19E-04    0.13E-04    0.49E-08
   0      8    10.715    90.285    0.29E-03    0.24E-04    0.62E-07
   1      7    10.715     4.328    0.49E-04    0.39E-04    0.16E-07
   1      7    10.715    54.583    0.22E-03    0.53E-03    0.76E-07
 Optimization of the real space projectors (new method)

 maximal supplied QI-value         = 16.25
 optimisation between [QCUT,QGAM] = [ 10.73, 21.45] = [ 32.22,128.87] Ry 
 Optimized for a Real-space Cutoff    1.39 Angstroem

   l    n(q)    QCUT    max X(q) W(low)/X(q) W(high)/X(q)  e(spline) 
   2      8    10.726     4.378    0.63E-04    0.18E-04    0.44E-07
   2      8    10.726    23.237    0.16E-03    0.54E-03    0.20E-06
   0      9    10.726    17.641    0.27E-04    0.11E-04    0.53E-08
   0      9    10.726    50.908    0.30E-03    0.17E-03    0.46E-07
   1      8    10.726     6.148    0.30E-04    0.44E-04    0.30E-07
   1      8    10.726     8.345    0.17E-03    0.14E-03    0.14E-06
  PAW_PBE Li 17Jan2003                  :
 energy of atom  1       EATOM=   -5.3001
 kinetic energy error for atom=    0.0000 (will be added to EATOM!!)
 PAW_PBE O 08Apr2002                    :
 energy of atom  2       EATOM= -432.3788
 kinetic energy error for atom=    0.0450 (will be added to EATOM!!)
  PAW_PBE P 17Jan2003                   :
 energy of atom  3       EATOM= -176.0430
 kinetic energy error for atom=    0.0019 (will be added to EATOM!!)
 PAW_PBE Fe 06Sep2000                   :
 energy of atom  4       EATOM= -594.4687
 kinetic energy error for atom=    0.0038 (will be added to EATOM!!)
 
 
 POSCAR: Li   O    P    Fe                       
  positions in direct lattice
  No initial velocities read in
 exchange correlation table for  LEXCH =        8
   RHO(1)=    0.500       N(1)  =     2000
   RHO(2)=  100.500       N(2)  =     4000
 
 POSCAR: Li   O    P    Fe                       
  positions in direct lattice
  No initial velocities read in
 
 POSCAR: Li   O    P    Fe                       
  positions in direct lattice
  No initial velocities read in
 


--------------------------------------------------------------------------------------------------------


 ion  position               nearest neighbor table
   1  0.000  0.125  0.000-   4 1.83  14 1.83  10 2.29  20 2.43   6 2.48  26 2.90  20 3.00
   2  0.500  0.500  0.500-  15 2.16  16 2.16   9 2.25  17 2.25  12 2.28  11 2.28  21 2.74  22 2.74
                             3 3.04   3 3.04
   3  0.500  0.000  0.500-  15 2.17  16 2.17   9 2.25  17 2.25  13 2.27  18 2.27  21 2.74  22 2.74
                             2 3.04   2 3.04
   4  0.116  0.244  0.754-  20 1.54   1 1.83  26 1.96
   5  0.822  0.551  0.715-  23 1.61  25 2.05  24 2.09
   6  0.826  0.951  0.725-  23 1.62  25 2.06  24 2.14   1 2.48
   7  0.884  0.756  0.246-  23 1.54  25 1.96
   8  0.040  0.754  0.657-  23 1.54  27 2.09
   9  0.391  0.749  0.248-  21 1.55  27 2.06   2 2.25   3 2.25
  10  0.174  0.049  0.275-  20 1.62  26 2.06  27 2.14   1 2.29
  11  0.675  0.454  0.220-  22 1.60  25 2.14  24 2.16   2 2.28
  12  0.325  0.546  0.780-  21 1.60  26 2.14  27 2.16   2 2.28
  13  0.326  0.953  0.779-  21 1.59  26 2.18  27 2.18   3 2.27
  14  0.960  0.246  0.343-  20 1.54   1 1.83  24 2.09
  15  0.463  0.251  0.187-  22 1.56   2 2.16   3 2.17  26 2.24
  16  0.537  0.749  0.813-  21 1.56   2 2.16   3 2.17  25 2.24
  17  0.609  0.251  0.752-  22 1.55  24 2.06   2 2.25   3 2.25
  18  0.674  0.047  0.221-  22 1.59  25 2.18  24 2.18   3 2.27
  19  0.178  0.449  0.285-  20 1.61  26 2.05  27 2.09
  20  0.101  0.249  0.431-  14 1.54   4 1.54  19 1.61  10 1.62   1 2.43  26 2.70   1 3.00
  21  0.396  0.750  0.922-   9 1.55  16 1.56  13 1.59  12 1.60   2 2.74   3 2.74  27 2.77
  22  0.604  0.250  0.078-  17 1.55  15 1.56  18 1.59  11 1.60   2 2.74   3 2.74  24 2.77
  23  0.899  0.751  0.569-   8 1.54   7 1.54   5 1.61   6 1.62  25 2.70
  24  0.777  0.253  0.521-  17 2.06   5 2.09  14 2.09   6 2.14  11 2.16  18 2.18  22 2.77
  25  0.732  0.748  0.004-   7 1.96   5 2.05   6 2.06  11 2.14  18 2.18  16 2.24  23 2.70
  26  0.268  0.252  0.996-   4 1.96  19 2.05  10 2.06  12 2.14  13 2.18  15 2.24  20 2.70   1 2.90

  27  0.223  0.747  0.479-   9 2.06  19 2.09   8 2.09  10 2.14  12 2.16  13 2.18  21 2.77
 
  LATTYP: Found a simple orthorhombic cell.
 ALAT       =     4.7519550000
 B/A-ratio  =     1.2810203379
 C/A-ratio  =     2.1992354726
  
  Lattice vectors:
  
 A1 = (   0.0000000000,   0.0000000000,  -4.7519550000)
 A2 = (   0.0000000000,  -6.0873510000,   0.0000000000)
 A3 = ( -10.4506680000,   0.0000000000,   0.0000000000)


Analysis of symmetry for initial positions (statically):
=====================================================================
 Subroutine PRICEL returns:
 Original cell was already a primitive cell.
 

 Routine SETGRP: Setting up the symmetry group for a 
 simple orthorhombic supercell.


 Subroutine GETGRP returns: Found  1 space group operations
 (whereof  1 operations were pure point group operations)
 out of a pool of  8 trial point group operations.


The static configuration has the point symmetry C_1 .


Analysis of symmetry for dynamics (positions and initial velocities):
=====================================================================
 Subroutine PRICEL returns:
 Original cell was already a primitive cell.
 

 Routine SETGRP: Setting up the symmetry group for a 
 simple orthorhombic supercell.


 Subroutine GETGRP returns: Found  1 space group operations
 (whereof  1 operations were pure point group operations)
 out of a pool of  8 trial point group operations.


The dynamic configuration has the point symmetry C_1 .
 
 
 KPOINTS: Automatic Mesh                          

Automatic generation of k-mesh.
Space group operators:
 irot       det(A)        alpha          n_x          n_y          n_z        tau_x        tau_y        tau_z
    1     1.000000     0.000000     1.000000     0.000000     0.000000     0.000000     0.000000     0.000000
 
 Subroutine IBZKPT returns following result:
 ===========================================
 
 Found     46 irreducible k-points:
 
 Following reciprocal coordinates:
            Coordinates               Weight
  0.000000  0.000000  0.000000      1.000000
  0.333333  0.000000  0.000000      2.000000
  0.000000  0.200000  0.000000      2.000000
  0.333333  0.200000  0.000000      2.000000
 -0.333333  0.200000  0.000000      2.000000
  0.000000  0.400000  0.000000      2.000000
  0.333333  0.400000  0.000000      2.000000
 -0.333333  0.400000  0.000000      2.000000
  0.000000  0.000000  0.166667      2.000000
  0.333333  0.000000  0.166667      2.000000
 -0.333333  0.000000  0.166667      2.000000
  0.000000  0.200000  0.166667      2.000000
  0.333333  0.200000  0.166667      2.000000
 -0.333333  0.200000  0.166667      2.000000
  0.000000  0.400000  0.166667      2.000000
  0.333333  0.400000  0.166667      2.000000
 -0.333333  0.400000  0.166667      2.000000
  0.000000 -0.400000  0.166667      2.000000
  0.333333 -0.400000  0.166667      2.000000
 -0.333333 -0.400000  0.166667      2.000000
  0.000000 -0.200000  0.166667      2.000000
  0.333333 -0.200000  0.166667      2.000000
 -0.333333 -0.200000  0.166667      2.000000
  0.000000  0.000000  0.333333      2.000000
  0.333333  0.000000  0.333333      2.000000
 -0.333333  0.000000  0.333333      2.000000
  0.000000  0.200000  0.333333      2.000000
  0.333333  0.200000  0.333333      2.000000
 -0.333333  0.200000  0.333333      2.000000
  0.000000  0.400000  0.333333      2.000000
  0.333333  0.400000  0.333333      2.000000
 -0.333333  0.400000  0.333333      2.000000
  0.000000 -0.400000  0.333333      2.000000
  0.333333 -0.400000  0.333333      2.000000
 -0.333333 -0.400000  0.333333      2.000000
  0.000000 -0.200000  0.333333      2.000000
  0.333333 -0.200000  0.333333      2.000000
 -0.333333 -0.200000  0.333333      2.000000
  0.000000  0.000000  0.500000      1.000000
  0.333333  0.000000  0.500000      2.000000
  0.000000  0.200000  0.500000      2.000000
  0.333333  0.200000  0.500000      2.000000
 -0.333333  0.200000  0.500000      2.000000
  0.000000  0.400000  0.500000      2.000000
  0.333333  0.400000  0.500000      2.000000
 -0.333333  0.400000  0.500000      2.000000
 
 Following cartesian coordinates:
            Coordinates               Weight
  0.000000  0.000000  0.000000      1.000000
  0.031896  0.000000  0.000000      2.000000
  0.000000  0.032855  0.000000      2.000000
  0.031896  0.032855  0.000000      2.000000
 -0.031896  0.032855  0.000000      2.000000
  0.000000  0.065710  0.000000      2.000000
  0.031896  0.065710  0.000000      2.000000
 -0.031896  0.065710  0.000000      2.000000
  0.000000  0.000000  0.035073      2.000000
  0.031896  0.000000  0.035073      2.000000
 -0.031896  0.000000  0.035073      2.000000
  0.000000  0.032855  0.035073      2.000000
  0.031896  0.032855  0.035073      2.000000
 -0.031896  0.032855  0.035073      2.000000
  0.000000  0.065710  0.035073      2.000000
  0.031896  0.065710  0.035073      2.000000
 -0.031896  0.065710  0.035073      2.000000
  0.000000 -0.065710  0.035073      2.000000
  0.031896 -0.065710  0.035073      2.000000
 -0.031896 -0.065710  0.035073      2.000000
  0.000000 -0.032855  0.035073      2.000000
  0.031896 -0.032855  0.035073      2.000000
 -0.031896 -0.032855  0.035073      2.000000
  0.000000  0.000000  0.070147      2.000000
  0.031896  0.000000  0.070147      2.000000
 -0.031896  0.000000  0.070147      2.000000
  0.000000  0.032855  0.070147      2.000000
  0.031896  0.032855  0.070147      2.000000
 -0.031896  0.032855  0.070147      2.000000
  0.000000  0.065710  0.070147      2.000000
  0.031896  0.065710  0.070147      2.000000
 -0.031896  0.065710  0.070147      2.000000
  0.000000 -0.065710  0.070147      2.000000
  0.031896 -0.065710  0.070147      2.000000
 -0.031896 -0.065710  0.070147      2.000000
  0.000000 -0.032855  0.070147      2.000000
  0.031896 -0.032855  0.070147      2.000000
 -0.031896 -0.032855  0.070147      2.000000
  0.000000  0.000000  0.105220      1.000000
  0.031896  0.000000  0.105220      2.000000
  0.000000  0.032855  0.105220      2.000000
  0.031896  0.032855  0.105220      2.000000
 -0.031896  0.032855  0.105220      2.000000
  0.000000  0.065710  0.105220      2.000000
  0.031896  0.065710  0.105220      2.000000
 -0.031896  0.065710  0.105220      2.000000
 


--------------------------------------------------------------------------------------------------------




 Dimension of arrays:
   k-points           NKPTS =     46   k-points in BZ     NKDIM =     46   number of bands    NBANDS=     95
   number of dos      NEDOS =    301   number of ions     NIONS =     27
   non local maximal  LDIM  =      6   non local SUM 2l+1 LMDIM =     18
   total plane-waves  NPLWV =  41472
   max r-space proj   IRMAX =   1609   max aug-charges    IRDMAX=   5086
   dimension x,y,z NGX =    54 NGY =   32 NGZ =   24
   dimension x,y,z NGXF=   108 NGYF=   64 NGZF=   48
   support grid    NGXF=   108 NGYF=   64 NGZF=   48
   ions per type =               3  16   4   4
 NGX,Y,Z   is equivalent  to a cutoff of   8.59,  8.74,  8.40 a.u.
 NGXF,Y,Z  is equivalent  to a cutoff of  17.18, 17.48, 16.79 a.u.


 I would recommend the setting:
   dimension x,y,z NGX =    54 NGY =   31 NGZ =   24
 SYSTEM =  Final conf. for neb from mp-19017       
 POSCAR =  Li   O    P    Fe                       

 Startparameter for this run:
   NWRITE =      2    write-flag & timer
   PREC   = normal    normal or accurate (medium, high low for compatibility)
   ISTART =      0    job   : 0-new  1-cont  2-samecut
   ICHARG =      2    charge: 1-file 2-atom 10-const
   ISPIN  =      1    spin polarized calculation?
   LNONCOLLINEAR =      F non collinear calculations
   LSORBIT =      F    spin-orbit coupling
   INIWAV =      1    electr: 0-lowe 1-rand  2-diag
   LASPH  =      F    aspherical Exc in radial PAW
   METAGGA=      F    non-selfconsistent MetaGGA calc.

 Electronic Relaxation 1
   ENCUT  =  441.0 eV  32.41 Ry    5.69 a.u.  17.89 10.42  8.14*2*pi/ulx,y,z
   ENINI  =  441.0     initial cutoff
   ENAUG  =  776.2 eV  augmentation charge cutoff
   NELM   =     50;   NELMIN=  4; NELMDL= -5     # of ELM steps 
   EDIFF  = 0.6E-05   stopping-criterion for ELM
   LREAL  =      T    real-space projection
   NLSPLINE    = F    spline interpolate recip. space projectors
   LCOMPAT=      F    compatible to vasp.4.4
   GGA_COMPAT  = T    GGA compatible to vasp.4.4-vasp.4.6
   LMAXPAW     = -100 max onsite density
   LMAXMIX     =    2 max onsite mixed and CHGCAR
   VOSKOWN=      0    Vosko Wilk Nusair interpolation
   ROPT   =   -0.00050  -0.00050  -0.00050  -0.00050
 Ionic relaxation
   EDIFFG = -.3E-01   stopping-criterion for IOM
   NSW    =     20    number of steps for IOM
   NBLOCK =      1;   KBLOCK =     20    inner block; outer block 
   IBRION =      1    ionic relax: 0-MD 1-quasi-New 2-CG
   NFREE  =      0    steps in history (QN), initial steepest desc. (CG)
   ISIF   =      2    stress and relaxation
   IWAVPR =     11    prediction:  0-non 1-charg 2-wave 3-comb
   ISYM   =      2    0-nonsym 1-usesym 2-fastsym
   LCORR  =      T    Harris-Foulkes like correction to forces

   POTIM  = 0.5000    time-step for ionic-motion
   TEIN   =    0.0    initial temperature
   TEBEG  =    0.0;   TEEND  =   0.0 temperature during run
   SMASS  =  -3.00    Nose mass-parameter (am)
   estimated Nose-frequenzy (Omega)   =  0.10E-29 period in steps =****** mass=  -0.250E-26a.u.
   SCALEE = 1.0000    scale energy and forces
   NPACO  =    256;   APACO  = 16.0  distance and # of slots for P.C.
   PSTRESS=    0.0 pullay stress

  Mass of Ions in am
   POMASS =   7.01 16.00 30.97 55.85
  Ionic Valenz
   ZVAL   =   1.00  6.00  5.00  8.00
  Atomic Wigner-Seitz radii
   RWIGS  =  -1.00 -1.00 -1.00 -1.00
  virtual crystal weights 
   VCA    =   1.00  1.00  1.00  1.00
   NELECT =     151.0000    total number of electrons
   NUPDOWN=      -1.0000    fix difference up-down

 DOS related values:
   EMIN   =  10.00;   EMAX   =-10.00  energy-range for DOS
   EFERMI =   0.00
   ISMEAR =     2;   SIGMA  =   0.20  broadening in eV -4-tet -1-fermi 0-gaus

 Electronic relaxation 2 (details)
   IALGO  =     38    algorithm
   LDIAG  =      T    sub-space diagonalisation (order eigenvalues)
   LSUBROT=      F    optimize rotation matrix (better conditioning)
   TURBO    =      0    0=normal 1=particle mesh
   IRESTART =      0    0=no restart 2=restart with 2 vectors
   NREBOOT  =      0    no. of reboots
   NMIN     =      0    reboot dimension
   EREF     =   0.00    reference energy to select bands
   IMIX   =      4    mixing-type and parameters
     AMIX     =   0.40;   BMIX     =  1.00
     AMIX_MAG =   1.60;   BMIX_MAG =  1.00
     AMIN     =   0.10
     WC   =   100.;   INIMIX=   1;  MIXPRE=   1;  MAXMIX=  40

 Intra band minimization:
   WEIMIN = 0.0010     energy-eigenvalue tresh-hold
   EBREAK =  0.16E-07  absolut break condition
   DEPER  =   0.30     relativ break condition  

   TIME   =   0.40     timestep for ELM

  volume/ion in A,a.u.               =      11.20        75.56
  Fermi-wavevector in a.u.,A,eV,Ry     =   1.298929  2.454621 22.955992  1.687218
  Thomas-Fermi vector in A             =   2.430226
 
 Write flags
   LWAVE  =      T    write WAVECAR
   LCHARG =      T    write CHGCAR
   LVTOT  =      F    write LOCPOT, total local potential
   LVHAR  =      F    write LOCPOT, Hartree potential only
   LELF   =      F    write electronic localiz. function (ELF)
   LORBIT =      0    0 simple, 1 ext, 2 COOP (PROOUT)


 Dipole corrections
   LMONO  =      F    monopole corrections only (constant potential shift)
   LDIPOL =      F    correct potential (dipole corrections)
   IDIPOL =      0    1-x, 2-y, 3-z, 4-all directions 
   EPSILON=  1.0000000 bulk dielectric constant

 Exchange correlation treatment:
   GGA     =    --    GGA type
   LEXCH   =     8    internal setting for exchange type
   VOSKOWN=      0    Vosko Wilk Nusair interpolation
   LHFCALC =     F    Hartree Fock is set to
   LHFONE  =     F    Hartree Fock one center treatment
   AEXX    =    0.0000 exact exchange contribution

 Linear response parameters
   LEPSILON=     F    determine dielectric tensor
   LRPA    =     F    only Hartree local field effects (RPA)
   LNABLA  =     F    use nabla operator in PAW spheres
   LVEL    =     F    velocity operator in full k-point grid
   LINTERFAST=   F  fast interpolation
   KINTER  =     0    interpolate to denser k-point grid
   CSHIFT  =0.1000    complex shift for real part using Kramers Kronig
   OMEGAMAX=  -1.0    maximum frequency
   DEG_THRESHOLD= 0.2000000E-02 threshold for treating states as degnerate
   RTIME   =    0.100 relaxation time in fs

 Orbital magnetization related:
   ORBITALMAG=     F  switch on orbital magnetization
   LCHIMAG   =     F  perturbation theory with respect to B field
   DQ        =  0.001000  dq finite difference perturbation B field



--------------------------------------------------------------------------------------------------------


 quasi-Newton-method for relaxation of ions
 charge density and potential will be updated during run
 non-spin polarized calculation
 Variant of blocked Davidson
 Davidson routine will perform the subspace rotation
 perform sub-space diagonalisation
    after iterative eigenvector-optimisation
 modified Broyden-mixing scheme, WC =      100.0
 initial mixing is a Kerker type mixing with AMIX =  0.4000 and BMIX =      1.0000
 Hartree-type preconditioning will be used
 using additional bands           19
 real space projection scheme for non local part
 use partial core corrections
 calculate Harris-corrections to forces 
   (improved forces if not selfconsistent)
 use gradient corrections 
 use of overlap-Matrix (Vanderbilt PP)
 Methfessel and Paxton  Order N= 2 SIGMA  =   0.20


--------------------------------------------------------------------------------------------------------


  energy-cutoff  :      441.00
  volume of cell :      302.30
      direct lattice vectors                 reciprocal lattice vectors
    10.450668000  0.000000000  0.000000000     0.095687663  0.000000000  0.000000000
     0.000000000  6.087351000  0.000000000     0.000000000  0.164275068  0.000000000
     0.000000000  0.000000000  4.751955000     0.000000000  0.000000000  0.210439703

  length of vectors
    10.450668000  6.087351000  4.751955000     0.095687663  0.164275068  0.210439703


 
 k-points in units of 2pi/SCALE and weight: Automatic Mesh                          
   0.00000000  0.00000000  0.00000000       0.011
   0.03189589  0.00000000  0.00000000       0.022
   0.00000000  0.03285501  0.00000000       0.022
   0.03189589  0.03285501  0.00000000       0.022
  -0.03189589  0.03285501  0.00000000       0.022
   0.00000000  0.06571003  0.00000000       0.022
   0.03189589  0.06571003  0.00000000       0.022
  -0.03189589  0.06571003  0.00000000       0.022
   0.00000000  0.00000000  0.03507328       0.022
   0.03189589  0.00000000  0.03507328       0.022
  -0.03189589  0.00000000  0.03507328       0.022
   0.00000000  0.03285501  0.03507328       0.022
   0.03189589  0.03285501  0.03507328       0.022
  -0.03189589  0.03285501  0.03507328       0.022
   0.00000000  0.06571003  0.03507328       0.022
   0.03189589  0.06571003  0.03507328       0.022
  -0.03189589  0.06571003  0.03507328       0.022
   0.00000000 -0.06571003  0.03507328       0.022
   0.03189589 -0.06571003  0.03507328       0.022
  -0.03189589 -0.06571003  0.03507328       0.022
   0.00000000 -0.03285501  0.03507328       0.022
   0.03189589 -0.03285501  0.03507328       0.022
  -0.03189589 -0.03285501  0.03507328       0.022
   0.00000000  0.00000000  0.07014657       0.022
   0.03189589  0.00000000  0.07014657       0.022
  -0.03189589  0.00000000  0.07014657       0.022
   0.00000000  0.03285501  0.07014657       0.022
   0.03189589  0.03285501  0.07014657       0.022
  -0.03189589  0.03285501  0.07014657       0.022
   0.00000000  0.06571003  0.07014657       0.022
   0.03189589  0.06571003  0.07014657       0.022
  -0.03189589  0.06571003  0.07014657       0.022
   0.00000000 -0.06571003  0.07014657       0.022
   0.03189589 -0.06571003  0.07014657       0.022
  -0.03189589 -0.06571003  0.07014657       0.022
   0.00000000 -0.03285501  0.07014657       0.022
   0.03189589 -0.03285501  0.07014657       0.022
  -0.03189589 -0.03285501  0.07014657       0.022
   0.00000000  0.00000000  0.10521985       0.011
   0.03189589  0.00000000  0.10521985       0.022
   0.00000000  0.03285501  0.10521985       0.022
   0.03189589  0.03285501  0.10521985       0.022
  -0.03189589  0.03285501  0.10521985       0.022
   0.00000000  0.06571003  0.10521985       0.022
   0.03189589  0.06571003  0.10521985       0.022
  -0.03189589  0.06571003  0.10521985       0.022
 
 k-points in reciprocal lattice and weights: Automatic Mesh                          
   0.00000000  0.00000000  0.00000000       0.011
   0.33333333  0.00000000  0.00000000       0.022
   0.00000000  0.20000000  0.00000000       0.022
   0.33333333  0.20000000  0.00000000       0.022
  -0.33333333  0.20000000  0.00000000       0.022
   0.00000000  0.40000000  0.00000000       0.022
   0.33333333  0.40000000  0.00000000       0.022
  -0.33333333  0.40000000  0.00000000       0.022
   0.00000000  0.00000000  0.16666667       0.022
   0.33333333  0.00000000  0.16666667       0.022
  -0.33333333  0.00000000  0.16666667       0.022
   0.00000000  0.20000000  0.16666667       0.022
   0.33333333  0.20000000  0.16666667       0.022
  -0.33333333  0.20000000  0.16666667       0.022
   0.00000000  0.40000000  0.16666667       0.022
   0.33333333  0.40000000  0.16666667       0.022
  -0.33333333  0.40000000  0.16666667       0.022
   0.00000000 -0.40000000  0.16666667       0.022
   0.33333333 -0.40000000  0.16666667       0.022
  -0.33333333 -0.40000000  0.16666667       0.022
   0.00000000 -0.20000000  0.16666667       0.022
   0.33333333 -0.20000000  0.16666667       0.022
  -0.33333333 -0.20000000  0.16666667       0.022
   0.00000000  0.00000000  0.33333333       0.022
   0.33333333  0.00000000  0.33333333       0.022
  -0.33333333  0.00000000  0.33333333       0.022
   0.00000000  0.20000000  0.33333333       0.022
   0.33333333  0.20000000  0.33333333       0.022
  -0.33333333  0.20000000  0.33333333       0.022
   0.00000000  0.40000000  0.33333333       0.022
   0.33333333  0.40000000  0.33333333       0.022
  -0.33333333  0.40000000  0.33333333       0.022
   0.00000000 -0.40000000  0.33333333       0.022
   0.33333333 -0.40000000  0.33333333       0.022
  -0.33333333 -0.40000000  0.33333333       0.022
   0.00000000 -0.20000000  0.33333333       0.022
   0.33333333 -0.20000000  0.33333333       0.022
  -0.33333333 -0.20000000  0.33333333       0.022
   0.00000000  0.00000000  0.50000000       0.011
   0.33333333  0.00000000  0.50000000       0.022
   0.00000000  0.20000000  0.50000000       0.022
   0.33333333  0.20000000  0.50000000       0.022
  -0.33333333  0.20000000  0.50000000       0.022
   0.00000000  0.40000000  0.50000000       0.022
   0.33333333  0.40000000  0.50000000       0.022
  -0.33333333  0.40000000  0.50000000       0.022
 
 position of ions in fractional coordinates (direct lattice) 
   0.00000000  0.12500000  0.00000000
   0.50000000  0.50000000  0.50000000
   0.50000000  0.00000000  0.50000000
   0.11556006  0.24446627  0.75351895
   0.82212361  0.55115203  0.71450794
   0.82560854  0.95076061  0.72462355
   0.88444094  0.75553373  0.24648205
   0.04026450  0.75449698  0.65730620
   0.39056988  0.74938010  0.24816718
   0.17439146  0.04924039  0.27537745
   0.67516526  0.45432970  0.21963344
   0.32483474  0.54567030  0.78036656
   0.32555692  0.95314063  0.77891326
   0.95973550  0.24550302  0.34269480
   0.46301811  0.25117048  0.18748695
   0.53698189  0.74882952  0.81251405
   0.60943012  0.25061990  0.75183382
   0.67444308  0.04686037  0.22108674
   0.17787639  0.44884797  0.28549306
   0.10149972  0.24943749  0.43071555
   0.39592522  0.74969572  0.92153017
   0.60407478  0.25030428  0.07846883
   0.89850028  0.75056251  0.56928345
   0.77676517  0.25310399  0.52141488
   0.73248343  0.74755769  0.00385353
   0.26751657  0.25244231  0.99614747
   0.22323483  0.74689601  0.47858412
 
 position of ions in cartesian coordinates  (Angst):
   0.00000000  0.76091887  0.00000000
   5.22533400  3.04367550  2.37597750
   5.22533400  0.00000000  2.37597750
   1.20767980  1.48815197  3.58068814
   8.59174091  3.35505584  3.39530959
   8.62816079  5.78761354  3.44337849
   9.24299865  4.59919903  1.17127162
   0.42079097  4.59288793  3.12348949
   4.08171618  4.56173968  1.17927929
   1.82250721  0.29974355  1.30858126
   7.05592801  2.76566436  1.04368822
   3.39473999  3.32168664  3.70826678
   3.40228725  5.80210159  3.70136078
  10.02987703  1.49446307  1.62847026
   4.83884857  1.52896285  0.89092953
   5.61181943  4.55838815  3.86103022
   6.36895182  1.52561132  3.57268047
   7.04838075  0.28525549  1.05059422
   1.85892709  2.73229516  1.35665016
   1.06073984  1.51841354  2.04674092
   4.13768307  4.56366099  4.37906988
   6.31298493  1.52369001  0.37288037
   9.38992816  4.56893746  2.70520933
   8.11771487  1.54073282  2.47774006
   7.65494118  4.55064607  0.01831180
   2.79572682  1.53670493  4.73364795
   2.33295313  4.54661818  2.27421019
 


--------------------------------------------------------------------------------------------------------


 k-point  1 :   0.0000 0.0000 0.0000  plane waves:    6383
 k-point  2 :   0.3333 0.0000 0.0000  plane waves:    6358
 k-point  3 :   0.0000 0.2000 0.0000  plane waves:    6353
 k-point  4 :   0.3333 0.2000 0.0000  plane waves:    6357
 k-point  5 :  -0.3333 0.2000 0.0000  plane waves:    6357
 k-point  6 :   0.0000 0.4000 0.0000  plane waves:    6363
 k-point  7 :   0.3333 0.4000 0.0000  plane waves:    6345
 k-point  8 :  -0.3333 0.4000 0.0000  plane waves:    6345
 k-point  9 :   0.0000 0.0000 0.1667  plane waves:    6350
 k-point 10 :   0.3333 0.0000 0.1667  plane waves:    6358
 k-point 11 :  -0.3333 0.0000 0.1667  plane waves:    6358
 k-point 12 :   0.0000 0.2000 0.1667  plane waves:    6352
 k-point 13 :   0.3333 0.2000 0.1667  plane waves:    6350
 k-point 14 :  -0.3333 0.2000 0.1667  plane waves:    6350
 k-point 15 :   0.0000 0.4000 0.1667  plane waves:    6341
 k-point 16 :   0.3333 0.4000 0.1667  plane waves:    6345
 k-point 17 :  -0.3333 0.4000 0.1667  plane waves:    6345
 k-point 18 :   0.0000-0.4000 0.1667  plane waves:    6341
 k-point 19 :   0.3333-0.4000 0.1667  plane waves:    6345
 k-point 20 :  -0.3333-0.4000 0.1667  plane waves:    6345
 k-point 21 :   0.0000-0.2000 0.1667  plane waves:    6352
 k-point 22 :   0.3333-0.2000 0.1667  plane waves:    6350
 k-point 23 :  -0.3333-0.2000 0.1667  plane waves:    6350
 k-point 24 :   0.0000 0.0000 0.3333  plane waves:    6354
 k-point 25 :   0.3333 0.0000 0.3333  plane waves:    6370
 k-point 26 :  -0.3333 0.0000 0.3333  plane waves:    6370
 k-point 27 :   0.0000 0.2000 0.3333  plane waves:    6373
 k-point 28 :   0.3333 0.2000 0.3333  plane waves:    6365
 k-point 29 :  -0.3333 0.2000 0.3333  plane waves:    6365
 k-point 30 :   0.0000 0.4000 0.3333  plane waves:    6345
 k-point 31 :   0.3333 0.4000 0.3333  plane waves:    6357
 k-point 32 :  -0.3333 0.4000 0.3333  plane waves:    6357
 k-point 33 :   0.0000-0.4000 0.3333  plane waves:    6345
 k-point 34 :   0.3333-0.4000 0.3333  plane waves:    6357
 k-point 35 :  -0.3333-0.4000 0.3333  plane waves:    6357
 k-point 36 :   0.0000-0.2000 0.3333  plane waves:    6373
 k-point 37 :   0.3333-0.2000 0.3333  plane waves:    6365
 k-point 38 :  -0.3333-0.2000 0.3333  plane waves:    6365
 k-point 39 :   0.0000 0.0000 0.5000  plane waves:    6372
 k-point 40 :   0.3333 0.0000 0.5000  plane waves:    6374
 k-point 41 :   0.0000 0.2000 0.5000  plane waves:    6368
 k-point 42 :   0.3333 0.2000 0.5000  plane waves:    6380
 k-point 43 :  -0.3333 0.2000 0.5000  plane waves:    6380
 k-point 44 :   0.0000 0.4000 0.5000  plane waves:    6344
 k-point 45 :   0.3333 0.4000 0.5000  plane waves:    6368
 k-point 46 :  -0.3333 0.4000 0.5000  plane waves:    6368

 maximum and minimum number of plane-waves per node :      1324     1229

 maximum number of plane-waves:      6383
 maximum index in each direction: 
   IXMAX=   18   IYMAX=   10   IZMAX=    8
   IXMIN=  -18   IYMIN=  -10   IZMIN=   -8

 WARNING: aliasing errors must be expected set NGX to  74 to avoid them
 WARNING: aliasing errors must be expected set NGY to  42 to avoid them
 WARNING: aliasing errors must be expected set NGZ to  34 to avoid them
 aliasing errors are usually negligible using standard VASP settings
 and one can safely disregard these warnings

 real space projection operators:
  total allocation   :       2241.88 KBytes
  max/ min on nodes  :        455.09        430.66


 parallel 3D FFT for wavefunctions:
    minimum data exchange during FFTs selected (reduces bandwidth)
 parallel 3D FFT for charge:
    minimum data exchange during FFTs selected (reduces bandwidth)


 total amount of memory used by VASP on root node   135761. kBytes
========================================================================

   base      :      30000. kBytes
   nonlr-proj:       1275. kBytes
   fftplans  :       2607. kBytes
   grid      :       5367. kBytes
   one-center:         93. kBytes
   wavefun   :      96419. kBytes
 
     INWAV:  cpu time    0.0000: real time    0.0003
 Broyden mixing: mesh for mixing (old mesh)
   NGX = 35   NGY = 21   NGZ = 17
  (NGX  =108   NGY  = 64   NGZ  = 48)
  gives a total of  12495 points

 initial charge density was supplied:
 charge density of overlapping atoms calculated
 number of electron     151.0000000 magnetization 
 keeping initial charge density in first step


--------------------------------------------------------------------------------------------------------


 Maximum index for non-local projection operator          320
 Maximum index for augmentation-charges          969 (set IRDMAX)


--------------------------------------------------------------------------------------------------------


 First call to EWALD:  gamma=   0.264
 Maximum number of real-space cells 2x 3x 4
 Maximum number of reciprocal cells 4x 3x 2

 FEWALD executed in parallel
    FEWALD:  cpu time    0.0026: real time    0.0026


----------------------------------------- Iteration    1(   1)  ---------------------------------------


    POTLOK:  cpu time    0.0425: real time    0.0424
    SETDIJ:  cpu time    0.0089: real time    0.0089
     EDDAV:  cpu time    9.1565: real time    9.1529
       DOS:  cpu time    0.0159: real time    0.0159
    --------------------------------------------
      LOOP:  cpu time    9.2263: real time    9.3816

 eigenvalue-minimisations  :  8740
 total energy-change (2. order) : 0.1693940E+04  (-0.6217115E+04)
 number of electron     151.0000000 magnetization 
 augmentation part      151.0000000 magnetization 

 Free energy of the ion-electron system (eV)
  ---------------------------------------------------
  alpha Z        PSCENC =       401.59370410
  Ewald energy   TEWEN  =     -7104.81374292
  -Hartree energ DENC   =     -3146.80357082
  -exchange      EXHF   =         0.00000000
  -V(xc)+E(xc)   XCENC  =       463.75710000
  PAW double counting   =      6060.85387329    -6071.66291187
  entropy T*S    EENTRO =        -0.00162257
  eigenvalues    EBANDS =      1075.75184993
  atomic energy  EATOM  =     10015.26539877
  Solvation  Ediel_sol  =         0.00000000
  ---------------------------------------------------
  free energy    TOTEN  =      1693.94007793 eV

  energy without entropy =     1693.94170050  energy(sigma->0) =     1693.94048357


--------------------------------------------------------------------------------------------------------




----------------------------------------- Iteration    1(   2)  ---------------------------------------


     EDDAV:  cpu time    9.6219: real time    9.6182
       DOS:  cpu time    0.0187: real time    0.0189
    --------------------------------------------
      LOOP:  cpu time    9.6417: real time    9.7637

 eigenvalue-minimisations  :  9325
 total energy-change (2. order) :-0.1614986E+04  (-0.1484321E+04)
 number of electron     151.0000000 magnetization 
 augmentation part      151.0000000 magnetization 

 Free energy of the ion-electron system (eV)
  ---------------------------------------------------
  alpha Z        PSCENC =       401.59370410
  Ewald energy   TEWEN  =     -7104.81374292
  -Hartree energ DENC   =     -3146.80357082
  -exchange      EXHF   =         0.00000000
  -V(xc)+E(xc)   XCENC  =       463.75710000
  PAW double counting   =      6060.85387329    -6071.66291187
  entropy T*S    EENTRO =         0.00266867
  eigenvalues    EBANDS =      -539.23864855
  atomic energy  EATOM  =     10015.26539877
  Solvation  Ediel_sol  =         0.00000000
  ---------------------------------------------------
  free energy    TOTEN  =        78.95387068 eV

  energy without entropy =       78.95120201  energy(sigma->0) =       78.95320351


--------------------------------------------------------------------------------------------------------




----------------------------------------- Iteration    1(   3)  ---------------------------------------


     EDDAV:  cpu time   10.1987: real time   10.1941
       DOS:  cpu time    0.0197: real time    0.0197
    --------------------------------------------
      LOOP:  cpu time   10.2191: real time   10.3434

 eigenvalue-minimisations  : 10050
 total energy-change (2. order) :-0.2756903E+03  (-0.2660848E+03)
 number of electron     151.0000000 magnetization 
 augmentation part      151.0000000 magnetization 

 Free energy of the ion-electron system (eV)
  ---------------------------------------------------
  alpha Z        PSCENC =       401.59370410
  Ewald energy   TEWEN  =     -7104.81374292
  -Hartree energ DENC   =     -3146.80357082
  -exchange      EXHF   =         0.00000000
  -V(xc)+E(xc)   XCENC  =       463.75710000
  PAW double counting   =      6060.85387329    -6071.66291187
  entropy T*S    EENTRO =         0.01331337
  eigenvalues    EBANDS =      -814.93962255
  atomic energy  EATOM  =     10015.26539877
  Solvation  Ediel_sol  =         0.00000000
  ---------------------------------------------------
  free energy    TOTEN  =      -196.73645861 eV

  energy without entropy =     -196.74977198  energy(sigma->0) =     -196.73978696


--------------------------------------------------------------------------------------------------------




----------------------------------------- Iteration    1(   4)  ---------------------------------------


     EDDAV:  cpu time   11.7107: real time   11.7052
       DOS:  cpu time    0.0211: real time    0.0211
    --------------------------------------------
      LOOP:  cpu time   11.7325: real time   11.8841

 eigenvalue-minimisations  : 11960
 total energy-change (2. order) :-0.1619014E+02  (-0.1578414E+02)
 number of electron     151.0000000 magnetization 
 augmentation part      151.0000000 magnetization 

 Free energy of the ion-electron system (eV)
  ---------------------------------------------------
  alpha Z        PSCENC =       401.59370410
  Ewald energy   TEWEN  =     -7104.81374292
  -Hartree energ DENC   =     -3146.80357082
  -exchange      EXHF   =         0.00000000
  -V(xc)+E(xc)   XCENC  =       463.75710000
  PAW double counting   =      6060.85387329    -6071.66291187
  entropy T*S    EENTRO =         0.00522147
  eigenvalues    EBANDS =      -831.12166797
  atomic energy  EATOM  =     10015.26539877
  Solvation  Ediel_sol  =         0.00000000
  ---------------------------------------------------
  free energy    TOTEN  =      -212.92659593 eV

  energy without entropy =     -212.93181740  energy(sigma->0) =     -212.92790130


--------------------------------------------------------------------------------------------------------




----------------------------------------- Iteration    1(   5)  ---------------------------------------


     EDDAV:  cpu time   12.4251: real time   12.4191
       DOS:  cpu time    0.0206: real time    0.0206
    CHARGE:  cpu time    0.5551: real time    0.5549
    MIXING:  cpu time    0.0014: real time    0.0014
    --------------------------------------------
      LOOP:  cpu time   13.0030: real time   13.1448

 eigenvalue-minimisations  : 12864
 total energy-change (2. order) :-0.6926403E+00  (-0.6879962E+00)
 number of electron     150.9999970 magnetization 
 augmentation part       25.0635661 magnetization 

 Broyden mixing:
  rms(total) = 0.35094E+01    rms(broyden)= 0.35048E+01
  rms(prec ) = 0.45883E+01
  weight for this iteration     100.00

 Free energy of the ion-electron system (eV)
  ---------------------------------------------------
  alpha Z        PSCENC =       401.59370410
  Ewald energy   TEWEN  =     -7104.81374292
  -Hartree energ DENC   =     -3146.80357082
  -exchange      EXHF   =         0.00000000
  -V(xc)+E(xc)   XCENC  =       463.75710000
  PAW double counting   =      6060.85387329    -6071.66291187
  entropy T*S    EENTRO =         0.00317523
  eigenvalues    EBANDS =      -831.81226197
  atomic energy  EATOM  =     10015.26539877
  Solvation  Ediel_sol  =         0.00000000
  ---------------------------------------------------
  free energy    TOTEN  =      -213.61923618 eV

  energy without entropy =     -213.62241141  energy(sigma->0) =     -213.62002999


--------------------------------------------------------------------------------------------------------




----------------------------------------- Iteration    1(   6)  ---------------------------------------


    POTLOK:  cpu time    0.0397: real time    0.0401
    SETDIJ:  cpu time    0.0090: real time    0.0090
     EDDAV:  cpu time   11.7678: real time   11.7623
       DOS:  cpu time    0.0209: real time    0.0208
    CHARGE:  cpu time    0.4970: real time    0.4967
    MIXING:  cpu time    0.0015: real time    0.0015
    --------------------------------------------
      LOOP:  cpu time   12.3370: real time   12.4650

 eigenvalue-minimisations  : 12072
 total energy-change (2. order) : 0.1617865E+02  (-0.1979088E+02)
 number of electron     151.0000004 magnetization 
 augmentation part       28.5003506 magnetization 

 Broyden mixing:
  rms(total) = 0.44831E+01    rms(broyden)= 0.44813E+01
  rms(prec ) = 0.63411E+01
  weight for this iteration     100.00

 eigenvalues of (default mixing * dielectric matrix)
  average eigenvalue GAMMA=   0.4207
  0.4207

 Free energy of the ion-electron system (eV)
  ---------------------------------------------------
  alpha Z        PSCENC =       401.59370410
  Ewald energy   TEWEN  =     -7104.81374292
  -Hartree energ DENC   =     -3287.74137648
  -exchange      EXHF   =         0.00000000
  -V(xc)+E(xc)   XCENC  =       477.05533455
  PAW double counting   =      6581.89523902    -6582.69845296
  entropy T*S    EENTRO =        -0.00504128
  eigenvalues    EBANDS =      -697.99165084
  atomic energy  EATOM  =     10015.26539877
  Solvation  Ediel_sol  =         0.00000000
  ---------------------------------------------------
  free energy    TOTEN  =      -197.44058804 eV

  energy without entropy =     -197.43554676  energy(sigma->0) =     -197.43932772


--------------------------------------------------------------------------------------------------------




----------------------------------------- Iteration    1(   7)  ---------------------------------------


    POTLOK:  cpu time    0.0389: real time    0.0393
    SETDIJ:  cpu time    0.0089: real time    0.0089
     EDDAV:  cpu time   11.4787: real time   11.4733
       DOS:  cpu time    0.0206: real time    0.0206
    CHARGE:  cpu time    0.5518: real time    0.5513
    MIXING:  cpu time    0.0016: real time    0.0016
    --------------------------------------------
      LOOP:  cpu time   12.1016: real time   12.2529

 eigenvalue-minimisations  : 11680
 total energy-change (2. order) :-0.4104337E+02  (-0.3144142E+02)
 number of electron     150.9999920 magnetization 
 augmentation part       25.4961295 magnetization 

 Broyden mixing:
  rms(total) = 0.66258E+01    rms(broyden)= 0.66253E+01
  rms(prec ) = 0.97922E+01
  weight for this iteration     100.00

 eigenvalues of (default mixing * dielectric matrix)
  average eigenvalue GAMMA=   0.3791
  0.6095  0.1486

 Free energy of the ion-electron system (eV)
  ---------------------------------------------------
  alpha Z        PSCENC =       401.59370410
  Ewald energy   TEWEN  =     -7104.81374292
  -Hartree energ DENC   =     -3304.30796159
  -exchange      EXHF   =         0.00000000
  -V(xc)+E(xc)   XCENC  =       477.06103965
  PAW double counting   =      6684.94851579    -6695.63640027
  entropy T*S    EENTRO =        -0.10033260
  eigenvalues    EBANDS =      -712.49417413
  atomic energy  EATOM  =     10015.26539877
  Solvation  Ediel_sol  =         0.00000000
  ---------------------------------------------------
  free energy    TOTEN  =      -238.48395320 eV

  energy without entropy =     -238.38362060  energy(sigma->0) =     -238.45887005


--------------------------------------------------------------------------------------------------------




----------------------------------------- Iteration    1(   8)  ---------------------------------------


    POTLOK:  cpu time    0.0394: real time    0.0393
    SETDIJ:  cpu time    0.0120: real time    0.0119
     EDDAV:  cpu time   11.8944: real time   11.8893
       DOS:  cpu time    0.0209: real time    0.0209
    CHARGE:  cpu time    0.5948: real time    0.5945
    MIXING:  cpu time    0.0017: real time    0.0017
    --------------------------------------------
      LOOP:  cpu time   12.5638: real time   12.6854

 eigenvalue-minimisations  : 12160
 total energy-change (2. order) : 0.2175415E+02  (-0.2007556E+02)
 number of electron     150.9999931 magnetization 
 augmentation part       25.2003311 magnetization 

 Broyden mixing:
  rms(total) = 0.62212E+01    rms(broyden)= 0.62210E+01
  rms(prec ) = 0.10296E+02
  weight for this iteration     100.00

 eigenvalues of (default mixing * dielectric matrix)
  average eigenvalue GAMMA=   0.2985
  0.6499  0.1577  0.0880

 Free energy of the ion-electron system (eV)
  ---------------------------------------------------
  alpha Z        PSCENC =       401.59370410
  Ewald energy   TEWEN  =     -7104.81374292
  -Hartree energ DENC   =     -3311.80344358
  -exchange      EXHF   =         0.00000000
  -V(xc)+E(xc)   XCENC  =       477.36605643
  PAW double counting   =      6746.54369550    -6762.06706297
  entropy T*S    EENTRO =        -0.10106059
  eigenvalues    EBANDS =      -678.71334517
  atomic energy  EATOM  =     10015.26539877
  Solvation  Ediel_sol  =         0.00000000
  ---------------------------------------------------
  free energy    TOTEN  =      -216.72980043 eV

  energy without entropy =     -216.62873983  energy(sigma->0) =     -216.70453528


--------------------------------------------------------------------------------------------------------




----------------------------------------- Iteration    1(   9)  ---------------------------------------


    POTLOK:  cpu time    0.0398: real time    0.0402
    SETDIJ:  cpu time    0.0089: real time    0.0089
     EDDAV:  cpu time   12.4458: real time   12.4398
       DOS:  cpu time    0.0219: real time    0.0219
    CHARGE:  cpu time    0.6081: real time    0.6076
    MIXING:  cpu time    0.0018: real time    0.0018
    --------------------------------------------
      LOOP:  cpu time   13.1275: real time   13.2964

 eigenvalue-minimisations  : 12880
 total energy-change (2. order) : 0.2541556E+02  (-0.9087889E+01)
 number of electron     150.9999922 magnetization 
 augmentation part       24.9578981 magnetization 

 Broyden mixing:
  rms(total) = 0.50439E+01    rms(broyden)= 0.50435E+01
  rms(prec ) = 0.75278E+01
  weight for this iteration     100.00

 eigenvalues of (default mixing * dielectric matrix)
  average eigenvalue GAMMA=   0.2355
  0.6543  0.1209  0.1106  0.0562

 Free energy of the ion-electron system (eV)
  ---------------------------------------------------
  alpha Z        PSCENC =       401.59370410
  Ewald energy   TEWEN  =     -7104.81374292
  -Hartree energ DENC   =     -3314.05909472
  -exchange      EXHF   =         0.00000000
  -V(xc)+E(xc)   XCENC  =       477.55378900
  PAW double counting   =      6767.95123151    -6784.50253582
  entropy T*S    EENTRO =        -0.07911506
  eigenvalues    EBANDS =      -650.22387247
  atomic energy  EATOM  =     10015.26539877
  Solvation  Ediel_sol  =         0.00000000
  ---------------------------------------------------
  free energy    TOTEN  =      -191.31423761 eV

  energy without entropy =     -191.23512255  energy(sigma->0) =     -191.29445885


--------------------------------------------------------------------------------------------------------




----------------------------------------- Iteration    1(  10)  ---------------------------------------


    POTLOK:  cpu time    0.0391: real time    0.0397
    SETDIJ:  cpu time    0.0089: real time    0.0089
     EDDAV:  cpu time   12.9088: real time   12.9026
       DOS:  cpu time    0.0215: real time    0.0215
    CHARGE:  cpu time    0.5900: real time    0.5897
    MIXING:  cpu time    0.0018: real time    0.0018
    --------------------------------------------
      LOOP:  cpu time   13.5714: real time   13.6729

 eigenvalue-minimisations  : 13408
 total energy-change (2. order) : 0.4367844E+01  (-0.3978693E+01)
 number of electron     150.9999989 magnetization 
 augmentation part       24.8989714 magnetization 

 Broyden mixing:
  rms(total) = 0.18290E+01    rms(broyden)= 0.18264E+01
  rms(prec ) = 0.26847E+01
  weight for this iteration     100.00

 eigenvalues of (default mixing * dielectric matrix)
  average eigenvalue GAMMA=   0.3130
  0.8360  0.3862  0.2138  0.0877  0.0412

 Free energy of the ion-electron system (eV)
  ---------------------------------------------------
  alpha Z        PSCENC =       401.59370410
  Ewald energy   TEWEN  =     -7104.81374292
  -Hartree energ DENC   =     -3314.43925104
  -exchange      EXHF   =         0.00000000
  -V(xc)+E(xc)   XCENC  =       477.58218188
  PAW double counting   =      6772.89316261    -6789.44655025
  entropy T*S    EENTRO =        -0.07990387
  eigenvalues    EBANDS =      -645.50139292
  atomic energy  EATOM  =     10015.26539877
  Solvation  Ediel_sol  =         0.00000000
  ---------------------------------------------------
  free energy    TOTEN  =      -186.94639363 eV

  energy without entropy =     -186.86648976  energy(sigma->0) =     -186.92641766


--------------------------------------------------------------------------------------------------------




----------------------------------------- Iteration    1(  11)  ---------------------------------------


    POTLOK:  cpu time    0.0393: real time    0.0393
    SETDIJ:  cpu time    0.0089: real time    0.0089
     EDDAV:  cpu time   13.7359: real time   13.7302
       DOS:  cpu time    0.0220: real time    0.0220
    CHARGE:  cpu time    0.5503: real time    0.5500
    MIXING:  cpu time    0.0021: real time    0.0021
    --------------------------------------------
      LOOP:  cpu time   14.3602: real time   14.4640

 eigenvalue-minimisations  : 14384
 total energy-change (2. order) : 0.1590988E+01  (-0.6209248E+00)
 number of electron     150.9999998 magnetization 
 augmentation part       25.1911893 magnetization 

 Broyden mixing:
  rms(total) = 0.16925E+01    rms(broyden)= 0.16920E+01
  rms(prec ) = 0.25098E+01
  weight for this iteration     100.00

 eigenvalues of (default mixing * dielectric matrix)
  average eigenvalue GAMMA=   0.3852
  1.0735  0.4297  0.4297  0.2492  0.0877  0.0413

 Free energy of the ion-electron system (eV)
  ---------------------------------------------------
  alpha Z        PSCENC =       401.59370410
  Ewald energy   TEWEN  =     -7104.81374292
  -Hartree energ DENC   =     -3313.87535768
  -exchange      EXHF   =         0.00000000
  -V(xc)+E(xc)   XCENC  =       477.93002693
  PAW double counting   =      6845.99988429    -6862.28606809
  entropy T*S    EENTRO =        -0.01093384
  eigenvalues    EBANDS =      -645.15831724
  atomic energy  EATOM  =     10015.26539877
  Solvation  Ediel_sol  =         0.00000000
  ---------------------------------------------------
  free energy    TOTEN  =      -185.35540568 eV

  energy without entropy =     -185.34447184  energy(sigma->0) =     -185.35267222


--------------------------------------------------------------------------------------------------------




----------------------------------------- Iteration    1(  12)  ---------------------------------------


    POTLOK:  cpu time    0.0392: real time    0.0396
    SETDIJ:  cpu time    0.0089: real time    0.0089
     EDDAV:  cpu time   12.2788: real time   12.2734
       DOS:  cpu time    0.0210: real time    0.0210
    CHARGE:  cpu time    0.5510: real time    0.5507
    MIXING:  cpu time    0.0022: real time    0.0022
    --------------------------------------------
      LOOP:  cpu time   12.9022: real time   13.0166

 eigenvalue-minimisations  : 12648
 total energy-change (2. order) :-0.6710197E+00  (-0.2792437E+01)
 number of electron     150.9999981 magnetization 
 augmentation part       25.4303961 magnetization 

 Broyden mixing:
  rms(total) = 0.25220E+01    rms(broyden)= 0.25215E+01
  rms(prec ) = 0.38359E+01
  weight for this iteration     100.00

 eigenvalues of (default mixing * dielectric matrix)
  average eigenvalue GAMMA=   0.5041
  1.5125  0.9786  0.4755  0.2168  0.2168  0.0875  0.0413

 Free energy of the ion-electron system (eV)
  ---------------------------------------------------
  alpha Z        PSCENC =       401.59370410
  Ewald energy   TEWEN  =     -7104.81374292
  -Hartree energ DENC   =     -3316.45753025
  -exchange      EXHF   =         0.00000000
  -V(xc)+E(xc)   XCENC  =       478.41673898
  PAW double counting   =      6888.57132327    -6904.95695088
  entropy T*S    EENTRO =        -0.04073001
  eigenvalues    EBANDS =      -643.60463645
  atomic energy  EATOM  =     10015.26539877
  Solvation  Ediel_sol  =         0.00000000
  ---------------------------------------------------
  free energy    TOTEN  =      -186.02642539 eV

  energy without entropy =     -185.98569539  energy(sigma->0) =     -186.01624289


--------------------------------------------------------------------------------------------------------




----------------------------------------- Iteration    1(  13)  ---------------------------------------


    POTLOK:  cpu time    0.0399: real time    0.0399
    SETDIJ:  cpu time    0.0090: real time    0.0089
     EDDAV:  cpu time   12.3233: real time   12.3177
       DOS:  cpu time    0.0209: real time    0.0209
    CHARGE:  cpu time    0.5187: real time    0.5185
    MIXING:  cpu time    0.0022: real time    0.0022
    --------------------------------------------
      LOOP:  cpu time   12.9148: real time   13.0304

 eigenvalue-minimisations  : 12688
 total energy-change (2. order) : 0.8550755E+00  (-0.6784537E+00)
 number of electron     151.0000002 magnetization 
 augmentation part       25.5787399 magnetization 

 Broyden mixing:
  rms(total) = 0.68584E+00    rms(broyden)= 0.68345E+00
  rms(prec ) = 0.95278E+00
  weight for this iteration     100.00

 eigenvalues of (default mixing * dielectric matrix)
  average eigenvalue GAMMA=   0.5743
  2.0973  0.9804  0.4967  0.4593  0.2161  0.2161  0.0875  0.0413

 Free energy of the ion-electron system (eV)
  ---------------------------------------------------
  alpha Z        PSCENC =       401.59370410
  Ewald energy   TEWEN  =     -7104.81374292
  -Hartree energ DENC   =     -3317.31495249
  -exchange      EXHF   =         0.00000000
  -V(xc)+E(xc)   XCENC  =       478.76727804
  PAW double counting   =      6966.68874947    -6982.46407791
  entropy T*S    EENTRO =         0.00787102
  eigenvalues    EBANDS =      -642.90157794
  atomic energy  EATOM  =     10015.26539877
  Solvation  Ediel_sol  =         0.00000000
  ---------------------------------------------------
  free energy    TOTEN  =      -185.17134986 eV

  energy without entropy =     -185.17922088  energy(sigma->0) =     -185.17331762


--------------------------------------------------------------------------------------------------------




----------------------------------------- Iteration    1(  14)  ---------------------------------------


    POTLOK:  cpu time    0.0390: real time    0.0390
    SETDIJ:  cpu time    0.0089: real time    0.0089
     EDDAV:  cpu time   12.2902: real time   12.2844
       DOS:  cpu time    0.0213: real time    0.0213
    CHARGE:  cpu time    0.5226: real time    0.5223
    MIXING:  cpu time    0.0025: real time    0.0025
    --------------------------------------------
      LOOP:  cpu time   12.8853: real time   12.9981

 eigenvalue-minimisations  : 12640
 total energy-change (2. order) : 0.2916629E+00  (-0.1741522E+00)
 number of electron     151.0000004 magnetization 
 augmentation part       25.6049940 magnetization 

 Broyden mixing:
  rms(total) = 0.45598E+00    rms(broyden)= 0.45528E+00
  rms(prec ) = 0.61393E+00
  weight for this iteration     100.00

 eigenvalues of (default mixing * dielectric matrix)
  average eigenvalue GAMMA=   0.6103
  2.3057  0.9858  0.5742  0.5742  0.4939  0.2149  0.2149  0.0875  0.0413

 Free energy of the ion-electron system (eV)
  ---------------------------------------------------
  alpha Z        PSCENC =       401.59370410
  Ewald energy   TEWEN  =     -7104.81374292
  -Hartree energ DENC   =     -3318.80088874
  -exchange      EXHF   =         0.00000000
  -V(xc)+E(xc)   XCENC  =       479.06571191
  PAW double counting   =      7005.41725666    -7022.58062958
  entropy T*S    EENTRO =         0.02099908
  eigenvalues    EBANDS =      -640.04749628
  atomic energy  EATOM  =     10015.26539877
  Solvation  Ediel_sol  =         0.00000000
  ---------------------------------------------------
  free energy    TOTEN  =      -184.87968699 eV

  energy without entropy =     -184.90068607  energy(sigma->0) =     -184.88493676


--------------------------------------------------------------------------------------------------------




----------------------------------------- Iteration    1(  15)  ---------------------------------------


    POTLOK:  cpu time    0.0395: real time    0.0395
    SETDIJ:  cpu time    0.0089: real time    0.0089
     EDDAV:  cpu time   12.5118: real time   12.5058
       DOS:  cpu time    0.0207: real time    0.0207
    CHARGE:  cpu time    0.5207: real time    0.5205
    MIXING:  cpu time    0.0026: real time    0.0026
    --------------------------------------------
      LOOP:  cpu time   13.1050: real time   13.2282

 eigenvalue-minimisations  : 12904
 total energy-change (2. order) :-0.1019156E+00  (-0.3169271E-01)
 number of electron     150.9999998 magnetization 
 augmentation part       25.5741593 magnetization 

 Broyden mixing:
  rms(total) = 0.69149E+00    rms(broyden)= 0.69133E+00
  rms(prec ) = 0.10057E+01
  weight for this iteration     100.00

 eigenvalues of (default mixing * dielectric matrix)
  average eigenvalue GAMMA=   0.6381
  2.3499  0.9361  0.8347  0.8347  0.4986  0.3685  0.2149  0.2149  0.0875  0.0413

 Free energy of the ion-electron system (eV)
  ---------------------------------------------------
  alpha Z        PSCENC =       401.59370410
  Ewald energy   TEWEN  =     -7104.81374292
  -Hartree energ DENC   =     -3319.21815064
  -exchange      EXHF   =         0.00000000
  -V(xc)+E(xc)   XCENC  =       479.15305478
  PAW double counting   =      7017.61663199    -7034.80165208
  entropy T*S    EENTRO =         0.01100279
  eigenvalues    EBANDS =      -639.78784938
  atomic energy  EATOM  =     10015.26539877
  Solvation  Ediel_sol  =         0.00000000
  ---------------------------------------------------
  free energy    TOTEN  =      -184.98160258 eV

  energy without entropy =     -184.99260537  energy(sigma->0) =     -184.98435328


--------------------------------------------------------------------------------------------------------




----------------------------------------- Iteration    1(  16)  ---------------------------------------


    POTLOK:  cpu time    0.0395: real time    0.0395
    SETDIJ:  cpu time    0.0089: real time    0.0089
     EDDAV:  cpu time   12.8865: real time   12.8852
       DOS:  cpu time    0.0210: real time    0.0210
    CHARGE:  cpu time    0.5376: real time    0.5371
    MIXING:  cpu time    0.0028: real time    0.0028
    --------------------------------------------
      LOOP:  cpu time   13.4971: real time   13.6064

 eigenvalue-minimisations  : 13344
 total energy-change (2. order) : 0.4326247E-01  (-0.6385649E-01)
 number of electron     151.0000002 magnetization 
 augmentation part       25.5291158 magnetization 

 Broyden mixing:
  rms(total) = 0.44622E+00    rms(broyden)= 0.44585E+00
  rms(prec ) = 0.67431E+00
  weight for this iteration     100.00

 eigenvalues of (default mixing * dielectric matrix)
  average eigenvalue GAMMA=   0.7011
  2.5515  1.1931  1.1931  0.8006  0.6488  0.4317  0.3338  0.2152  0.2152  0.0875
  0.0413

 Free energy of the ion-electron system (eV)
  ---------------------------------------------------
  alpha Z        PSCENC =       401.59370410
  Ewald energy   TEWEN  =     -7104.81374292
  -Hartree energ DENC   =     -3319.96343944
  -exchange      EXHF   =         0.00000000
  -V(xc)+E(xc)   XCENC  =       479.22063281
  PAW double counting   =      7022.27250104    -7039.35304876
  entropy T*S    EENTRO =         0.02976300
  eigenvalues    EBANDS =      -639.19010871
  atomic energy  EATOM  =     10015.26539877
  Solvation  Ediel_sol  =         0.00000000
  ---------------------------------------------------
  free energy    TOTEN  =      -184.93834011 eV

  energy without entropy =     -184.96810311  energy(sigma->0) =     -184.94578086


--------------------------------------------------------------------------------------------------------




----------------------------------------- Iteration    1(  17)  ---------------------------------------


    POTLOK:  cpu time    0.0396: real time    0.0412
    SETDIJ:  cpu time    0.0094: real time    0.0094
     EDDAV:  cpu time   11.9734: real time   11.9686
       DOS:  cpu time    0.0216: real time    0.0216
    CHARGE:  cpu time    0.5348: real time    0.5344
    MIXING:  cpu time    0.0030: real time    0.0030
    --------------------------------------------
      LOOP:  cpu time   12.5841: real time   12.6638

 eigenvalue-minimisations  : 12232
 total energy-change (2. order) :-0.5168338E-01  (-0.9250077E-02)
 number of electron     151.0000001 magnetization 
 augmentation part       25.5188790 magnetization 

 Broyden mixing:
  rms(total) = 0.47704E+00    rms(broyden)= 0.47697E+00
  rms(prec ) = 0.71313E+00
  weight for this iteration     100.00

 eigenvalues of (default mixing * dielectric matrix)
  average eigenvalue GAMMA=   0.7470
  2.6571  1.4458  1.3688  0.8190  0.6581  0.6581  0.4856  0.0413  0.0875  0.2151
  0.2151  0.3128

 Free energy of the ion-electron system (eV)
  ---------------------------------------------------
  alpha Z        PSCENC =       401.59370410
  Ewald energy   TEWEN  =     -7104.81374292
  -Hartree energ DENC   =     -3321.02697047
  -exchange      EXHF   =         0.00000000
  -V(xc)+E(xc)   XCENC  =       479.37148354
  PAW double counting   =      7028.44218021    -7045.47879254
  entropy T*S    EENTRO =         0.01868184
  eigenvalues    EBANDS =      -638.36196602
  atomic energy  EATOM  =     10015.26539877
  Solvation  Ediel_sol  =         0.00000000
  ---------------------------------------------------
  free energy    TOTEN  =      -184.99002349 eV

  energy without entropy =     -185.00870533  energy(sigma->0) =     -184.99469395


--------------------------------------------------------------------------------------------------------




----------------------------------------- Iteration    1(  18)  ---------------------------------------


    POTLOK:  cpu time    0.0398: real time    0.0401
    SETDIJ:  cpu time    0.0089: real time    0.0089
     EDDAV:  cpu time   13.1341: real time   13.1277
       DOS:  cpu time    0.0215: real time    0.0215
    CHARGE:  cpu time    0.5325: real time    0.5322
    MIXING:  cpu time    0.0030: real time    0.0030
    --------------------------------------------
      LOOP:  cpu time   13.7410: real time   13.8862

 eigenvalue-minimisations  : 13720
 total energy-change (2. order) : 0.1978157E-01  (-0.8776758E-02)
 number of electron     151.0000002 magnetization 
 augmentation part       25.4965518 magnetization 

 Broyden mixing:
  rms(total) = 0.37757E+00    rms(broyden)= 0.37749E+00
  rms(prec ) = 0.59088E+00
  weight for this iteration     100.00

 eigenvalues of (default mixing * dielectric matrix)
  average eigenvalue GAMMA=   0.7638
  2.7318  1.7860  1.1659  0.8755  0.7634  0.7634  0.5451  0.4357  0.2152  0.2152
  0.0875  0.0413  0.3034

 Free energy of the ion-electron system (eV)
  ---------------------------------------------------
  alpha Z        PSCENC =       401.59370410
  Ewald energy   TEWEN  =     -7104.81374292
  -Hartree energ DENC   =     -3321.29765937
  -exchange      EXHF   =         0.00000000
  -V(xc)+E(xc)   XCENC  =       479.44087711
  PAW double counting   =      7027.97799814    -7044.75389728
  entropy T*S    EENTRO =         0.01823180
  eigenvalues    EBANDS =      -638.40115228
  atomic energy  EATOM  =     10015.26539877
  Solvation  Ediel_sol  =         0.00000000
  ---------------------------------------------------
  free energy    TOTEN  =      -184.97024192 eV

  energy without entropy =     -184.98847371  energy(sigma->0) =     -184.97479987


--------------------------------------------------------------------------------------------------------




----------------------------------------- Iteration    1(  19)  ---------------------------------------


    POTLOK:  cpu time    0.0393: real time    0.0393
    SETDIJ:  cpu time    0.0089: real time    0.0089
     EDDAV:  cpu time   12.6168: real time   12.6107
       DOS:  cpu time    0.0207: real time    0.0207
    CHARGE:  cpu time    0.5374: real time    0.5372
    MIXING:  cpu time    0.0033: real time    0.0033
    --------------------------------------------
      LOOP:  cpu time   13.2272: real time   13.3244

 eigenvalue-minimisations  : 13032
 total energy-change (2. order) : 0.2578659E-01  (-0.2908887E-02)
 number of electron     151.0000002 magnetization 
 augmentation part       25.5016301 magnetization 

 Broyden mixing:
  rms(total) = 0.27558E+00    rms(broyden)= 0.27553E+00
  rms(prec ) = 0.42114E+00
  weight for this iteration     100.00

 eigenvalues of (default mixing * dielectric matrix)
  average eigenvalue GAMMA=   0.7938
  2.7189  2.2252  1.1615  0.9691  0.9691  0.6160  0.6160  0.4877  0.4877  0.0413
  0.2152  0.2152  0.0875  0.3034

 Free energy of the ion-electron system (eV)
  ---------------------------------------------------
  alpha Z        PSCENC =       401.59370410
  Ewald energy   TEWEN  =     -7104.81374292
  -Hartree energ DENC   =     -3321.30205203
  -exchange      EXHF   =         0.00000000
  -V(xc)+E(xc)   XCENC  =       479.47135366
  PAW double counting   =      7027.12249572    -7043.84914255
  entropy T*S    EENTRO =         0.00315827
  eigenvalues    EBANDS =      -638.43562835
  atomic energy  EATOM  =     10015.26539877
  Solvation  Ediel_sol  =         0.00000000
  ---------------------------------------------------
  free energy    TOTEN  =      -184.94445532 eV

  energy without entropy =     -184.94761359  energy(sigma->0) =     -184.94524489


[...]
     78       4.0574     -0.00258
     79       4.1833      0.00703
     80       4.2477      0.00281
     81       4.5707      0.00000
     82       4.6312      0.00000
     83       4.7425      0.00000
     84       4.8302      0.00000
     85       9.0684      0.00000
     86       9.3749      0.00000
     87       9.4582      0.00000
     88       9.6481      0.00000
     89       9.8073      0.00000
     90       9.9600      0.00000
     91      10.0792      0.00000
     92      10.1816      0.00000
     93      10.3620      0.00000
     94      10.5410      0.00000
     95      10.5877      0.00000

 k-point    46 :      -0.3333    0.4000    0.5000
  band No.  band energies     occupation 
      1     -18.8131      2.00000
      2     -18.7231      2.00000
      3     -18.5648      2.00000
      4     -18.3082      2.00000
      5     -16.7642      2.00000
      6     -16.7045      2.00000
      7     -16.5864      2.00000
      8     -16.4258      2.00000
      9     -16.3354      2.00000
     10     -16.2374      2.00000
     11     -16.2137      2.00000
     12     -16.1793      2.00000
     13     -16.1364      2.00000
     14     -16.0320      2.00000
     15     -15.9681      2.00000
     16     -15.7395      2.00000
     17      -6.1323      2.00000
     18      -6.0543      2.00000
     19      -6.0237      2.00000
     20      -5.8634      2.00000
     21      -3.9377      2.00000
     22      -3.9167      2.00000
     23      -3.8300      2.00000
     24      -3.8261      2.00000
     25      -3.7538      2.00000
     26      -3.6757      2.00000
     27      -3.6330      2.00000
     28      -3.5644      2.00000
     29      -3.3537      2.00000
     30      -3.2731      2.00000
     31      -3.1058      2.00000
     32      -2.9709      2.00000
     33      -2.5647      2.00000
     34      -2.4971      2.00000
     35      -2.4074      2.00000
     36      -2.3237      2.00000
     37      -1.9706      2.00000
     38      -1.8322      2.00000
     39      -1.6293      2.00000
     40      -1.4599      2.00000
     41      -1.3943      2.00000
     42      -1.3248      2.00000
     43      -1.2978      2.00000
     44      -1.1250      2.00000
     45      -1.0426      2.00000
     46      -0.9624      2.00000
     47      -0.8923      2.00000
     48      -0.8352      2.00000
     49      -0.6293      2.00000
     50      -0.5402      2.00000
     51      -0.4277      2.00000
     52      -0.2318      2.00000
     53      -0.0795      2.00000
     54      -0.0092      2.00000
     55       0.0284      2.00000
     56       0.2349      2.00000
     57       0.2816      2.00000
     58       0.3871      2.00000
     59       0.4556      2.00000
     60       0.6730      2.00000
     61       0.7337      2.00000
     62       0.8208      2.00000
     63       1.0178      2.00000
     64       1.1247      2.00000
     65       3.3076      1.99033
     66       3.3296      1.99029
     67       3.3606      1.99361
     68       3.3757      1.99733
     69       3.4245      2.02235
     70       3.4463      2.04017
     71       3.4629      2.05565
     72       3.4934      2.08407
     73       3.5436      2.10080
     74       3.5607      2.08651
     75       3.6386      1.78578
     76       3.6577      1.64325
     77       3.9935     -0.04731
     78       4.0547     -0.00376
     79       4.1979      0.00594
     80       4.2356      0.00345
     81       4.5625      0.00000
     82       4.6408      0.00000
     83       4.7391      0.00000
     84       4.8315      0.00000
     85       9.0476      0.00000
     86       9.3998      0.00000
     87       9.4677      0.00000
     88       9.6434      0.00000
     89       9.8256      0.00000
     90       9.9650      0.00000
     91      10.0687      0.00000
     92      10.1628      0.00000
     93      10.3190      0.00000
     94      10.5753      0.00000
     95      10.6531      0.00000


--------------------------------------------------------------------------------------------------------


 soft charge-density along one line, spin component           1
         0         1         2         3         4         5         6         7         8         9
 total charge-density along one line
 
 pseudopotential strength for first ion, spin component:           1
  1.173  -0.045  -0.001  -0.001  -0.002
 -0.045  -0.052   0.000   0.000   0.000
 -0.001   0.000  -0.353   0.000   0.001
 -0.001   0.000   0.000  -0.353  -0.001
 -0.002   0.000   0.001  -0.001  -0.353
 total augmentation occupancy for first ion, spin component:           1
  0.607  -0.074   0.051   0.013   0.031
 -0.074   0.010  -0.007  -0.002  -0.005
  0.051  -0.007   0.045   0.019   0.027
  0.013  -0.002   0.019   0.094  -0.010
  0.031  -0.005   0.027  -0.010   0.065


------------------------ aborting loop because EDIFF is reached ----------------------------------------


    CHARGE:  cpu time    0.5362: real time    0.5394
    FORLOC:  cpu time    0.0143: real time    0.0143
    FORNL :  cpu time    2.1860: real time    2.1849
    STRESS:  cpu time    6.5321: real time    6.5301
    FORCOR:  cpu time    0.0467: real time    0.0470
    FORHAR:  cpu time    0.0213: real time    0.0213
    MIXING:  cpu time    0.0094: real time    0.0094
    OFIELD:  cpu time    0.0000: real time    0.0000

  FORCE on cell =-STRESS in cart. coord.  units (eV):
  Direction    XX          YY          ZZ          XY          YZ          ZX
  --------------------------------------------------------------------------------------
  Alpha Z   401.59370   401.59370   401.59370
  Ewald   -2474.07972 -2298.01249 -2322.45669    84.07854    27.11727   -63.78391
  Hartree   967.67780  1284.01915  1081.36129    33.90145    10.16341   -31.90687
  E(xc)    -715.24392  -714.97271  -715.62842     0.06419     0.06520     0.03337
  Local    -741.95023 -1252.85545  -994.63156  -113.79411   -34.90138    93.38789
  n-local  -306.95928  -319.09440  -307.25559     1.07341     0.16485     0.93578
  augment   222.38778   221.75510   223.58355    -0.14359    -0.45894    -0.88530
  Kinetic  2622.77784  2651.18959  2616.67076    -5.47936    -2.13805     2.64410
  Fock        0.00000     0.00000     0.00000     0.00000     0.00000     0.00000
  -------------------------------------------------------------------------------------
  Total     -23.79603   -26.37751   -16.76296    -0.29947     0.01236     0.42506
  in kB    -126.11606  -139.79756   -88.84164    -1.58716     0.06553     2.25276
  external pressure =     -118.25 kB  Pullay stress =        0.00 kB


 VOLUME and BASIS-vectors are now :
 -----------------------------------------------------------------------------
  energy-cutoff  :      441.00
  volume of cell :      302.30
      direct lattice vectors                 reciprocal lattice vectors
    10.450668000  0.000000000  0.000000000     0.095687663  0.000000000  0.000000000
     0.000000000  6.087351000  0.000000000     0.000000000  0.164275068  0.000000000
     0.000000000  0.000000000  4.751955000     0.000000000  0.000000000  0.210439703

  length of vectors
    10.450668000  6.087351000  4.751955000     0.095687663  0.164275068  0.210439703


 FORCES acting on ions
    electron-ion (+dipol)            ewald-force                    non-local-force                 convergence-correction
 -----------------------------------------------------------------------------------------------
   0.446E+01 0.167E+01 -.434E+00   -.414E+01 -.133E+01 0.608E+00   -.403E+00 -.675E+00 -.173E+00   0.790E-02 0.413E-03 0.167E-03
   -.110E+01 -.715E-01 0.113E+00   0.108E+01 0.110E+00 -.877E-01   0.191E-01 -.318E-01 -.227E-01   -.784E-02 -.487E-03 -.219E-04
   -.136E+01 -.653E-01 0.499E-01   0.134E+01 0.184E-01 -.327E-01   0.256E-01 0.532E-01 -.209E-01   -.768E-02 0.484E-03 -.179E-04
   0.121E+03 -.447E+01 -.931E+02   -.126E+03 0.557E+01 0.124E+03   0.544E+01 -.112E+01 -.313E+02   0.501E-01 0.103E-02 0.160E-01
   -.388E+02 0.100E+03 -.408E+02   0.288E+02 -.123E+03 0.536E+02   0.998E+01 0.223E+02 -.128E+02   0.362E-01 -.872E-02 -.783E-02
   -.350E+02 -.106E+03 -.459E+02   0.249E+02 0.127E+03 0.582E+02   0.101E+02 -.205E+02 -.123E+02   0.359E-01 0.120E-01 -.405E-02
   -.118E+03 0.230E+01 0.873E+02   0.127E+03 -.143E+01 -.120E+03   -.851E+01 -.823E+00 0.331E+02   0.570E-01 -.131E-02 0.147E-01
   -.561E+02 0.837E+01 -.101E+03   0.863E+02 -.831E+01 0.117E+03   -.302E+02 -.455E-01 -.160E+02   0.604E-01 -.167E-02 -.807E-02
   -.103E+03 -.401E+01 -.925E+02   0.108E+03 0.404E+01 0.124E+03   -.507E+01 -.251E-01 -.317E+02   -.525E-01 -.710E-03 0.725E-02
   0.331E+02 0.109E+03 0.453E+02   -.226E+02 -.133E+03 -.587E+02   -.105E+02 0.239E+02 0.135E+02   0.268E-01 -.695E-03 -.453E-02
   0.789E+01 -.987E+02 -.450E+02   0.493E+01 0.123E+03 0.584E+02   -.128E+02 -.243E+02 -.134E+02   -.318E-01 -.146E-01 0.220E-02
   -.978E+01 0.922E+02 0.460E+02   -.345E+01 -.116E+03 -.599E+02   0.133E+02 0.238E+02 0.139E+02   -.369E-01 -.744E-02 -.144E-02
   -.919E+01 -.980E+02 0.458E+02   -.463E+01 0.123E+03 -.595E+02   0.139E+02 -.245E+02 0.137E+02   -.349E-01 0.315E-02 -.776E-03
   0.759E+02 -.103E+02 0.958E+02   -.106E+03 0.114E+02 -.107E+03   0.298E+02 -.116E+01 0.113E+02   0.607E-01 0.272E-02 -.346E-02
   0.725E+02 0.314E+01 -.931E+02   -.102E+03 -.334E+01 0.106E+03   0.295E+02 0.209E+00 -.128E+02   -.575E-01 0.349E-03 -.736E-02
   -.888E+02 -.346E+01 0.915E+02   0.119E+03 0.342E+01 -.104E+03   -.301E+02 0.520E-01 0.121E+02   -.596E-01 -.129E-03 -.884E-02
   0.961E+02 0.502E+01 0.929E+02   -.102E+03 -.527E+01 -.125E+03   0.553E+01 0.275E+00 0.317E+02   -.466E-01 -.246E-02 0.399E-02
   0.808E+01 0.104E+03 -.481E+02   0.552E+01 -.129E+03 0.617E+02   -.136E+02 0.250E+02 -.136E+02   -.293E-01 0.958E-02 0.277E-02
   0.381E+02 -.981E+02 0.471E+02   -.268E+02 0.121E+03 -.608E+02   -.113E+02 -.230E+02 0.138E+02   0.256E-01 0.426E-04 -.216E-02
   0.499E+02 -.778E+01 -.120E+02   -.517E+02 0.739E+01 0.139E+02   0.172E+01 0.351E+00 -.193E+01   0.354E-01 0.280E-02 -.458E-02
   -.305E+02 -.255E+01 -.212E+02   0.318E+02 0.269E+01 0.217E+02   -.118E+01 -.139E+00 -.457E+00   -.393E-01 -.638E-03 -.190E-02
   0.266E+02 0.215E+01 0.221E+02   -.275E+02 -.235E+01 -.226E+02   0.993E+00 0.221E+00 0.503E+00   -.356E-01 -.404E-03 -.112E-02
   -.404E+02 0.822E+01 0.468E+01   0.440E+02 -.838E+01 -.879E+01   -.356E+01 0.183E+00 0.414E+01   0.422E-01 0.340E-03 -.383E-02
   -.757E+02 0.756E+01 -.195E+02   0.759E+02 -.679E+01 0.203E+02   -.170E+00 -.733E+00 -.789E+00   0.102E-01 0.638E-03 -.216E-02
   0.863E+02 -.442E+01 -.248E+02   -.836E+02 0.379E+01 0.260E+02   -.277E+01 0.641E+00 -.119E+01   -.870E-02 0.354E-02 0.226E-02
   -.748E+02 0.365E+01 0.362E+02   0.730E+02 -.342E+01 -.368E+02   0.182E+01 -.232E+00 0.596E+00   -.140E-01 0.108E-02 -.237E-03
   0.696E+02 -.103E+02 0.223E+02   -.712E+02 0.991E+01 -.230E+02   0.163E+01 0.441E+00 0.677E+00   0.494E-02 -.375E-02 0.756E-03
 -----------------------------------------------------------------------------------------------
   0.638E+01 -.160E+00 -.557E+00   0.114E-12 -.675E-13 0.462E-13   -.637E+01 0.140E+00 0.568E+00   -.903E-02 -.483E-02 -.122E-01
 
 
 POSITION                                       TOTAL-FORCE (eV/Angst)
 -----------------------------------------------------------------------------------
     -0.27979      0.72897     -0.15622        -0.072755     -0.327334      0.000500
      5.21915      3.05484      2.37828        -0.010527      0.007631      0.002983
      5.22013     -0.00572      2.37629        -0.005112      0.007738     -0.003716
      1.22506      1.51670      3.59493        -0.034819     -0.021624      0.028082
      8.58818      3.37689      3.41322        -0.014854      0.019795     -0.011773
      8.67685      5.82426      3.48039         0.019936      0.022037      0.011351
      9.19783      4.62217      1.19362        -0.009391      0.043475     -0.021272
      0.44404      4.59481      3.07614        -0.046203      0.014287     -0.013912
      4.09125      4.57223      1.18299         0.023572      0.012976     -0.001758
      1.87432      0.33113      1.33315         0.024798      0.023022      0.022687
      7.04658      2.77460      1.03994        -0.000440      0.024551      0.003497
      3.40698      3.32684      3.71488         0.009850      0.006737      0.007645
      3.40781      5.81210      3.71000         0.012017      0.011115      0.002325
     10.07381      1.52309      1.64141        -0.002190     -0.014648     -0.044831
      4.83072      1.53200      0.89383        -0.004751      0.016151     -0.002040
      5.61620      4.56726      3.85974         0.015963      0.011217      0.002809
      6.35617      1.53092      3.57240         0.007880      0.022239      0.004917
      7.04434      0.29834      1.05157        -0.004074      0.023812      0.006802
      1.91746      2.75454      1.38187         0.021973      0.011704      0.020328
      1.11306      1.54895      2.05515        -0.002765     -0.034021     -0.035891
      4.14330      4.57286      4.38216         0.015690      0.007534      0.013051
      6.30410      1.53033      0.37311        -0.002225      0.015325     -0.006149
      9.40861      4.58042      2.71265         0.076328      0.030352      0.028760
      8.10023      1.56799      2.48429         0.003748      0.036383     -0.018515
      7.66289      4.55227      0.02268        -0.013676      0.009800      0.003648
      2.83787      1.55400      4.74290        -0.023430      0.001436      0.006962
      2.33155      4.56108      2.26409         0.015456      0.018309     -0.006491
 -----------------------------------------------------------------------------------
    total drift:                               -0.003943     -0.025171     -0.000888


--------------------------------------------------------------------------------------------------------



  FREE ENERGIE OF THE ION-ELECTRON SYSTEM (eV)
  ---------------------------------------------------
  free  energy   TOTEN  =      -185.17499136 eV

  energy  without entropy=     -185.17410855  energy(sigma->0) =     -185.17477066
 
 d Force = 0.1454387E-02[ 0.930E-03, 0.198E-02]  d Energy = 0.1441378E-02 0.130E-04
 d Force = 0.3317873E-01[ 0.291E-01, 0.372E-01]  d Ewald  = 0.3317610E-01 0.263E-05


--------------------------------------------------------------------------------------------------------


    POTLOK:  cpu time    0.0485: real time    0.0884


--------------------------------------------------------------------------------------------------------


  energy of chain is (eV)         0.000000 for this image         0.000000
  tangential force (eV/A)        -0.317904
  left and right image   0.821772  0.827320 A
 TANGENT                                        CHAIN-FORCE (eV/Angst)
 -----------------------------------------------------------------------------------
     -0.26257      0.93590     -0.14691        -0.083473      0.297525     -0.046704
     -0.00526      0.00686      0.00174        -0.001673      0.002180      0.000554
     -0.00525     -0.00682      0.00172        -0.001670     -0.002170      0.000546
      0.02718      0.04130      0.00857         0.008642      0.013128      0.002726
      0.03767     -0.01486      0.05465         0.011974     -0.004723      0.017374
     -0.00629      0.00167     -0.00400        -0.002001      0.000531     -0.001271
     -0.03858     -0.04085      0.02126        -0.012265     -0.012985      0.006759
      0.01755     -0.03357     -0.03802         0.005579     -0.010671     -0.012086
      0.00982      0.00456      0.00293         0.003121      0.001450      0.000932
      0.07169      0.00981      0.04714         0.022790      0.003120      0.014987
     -0.01048     -0.00601      0.00286        -0.003332     -0.001912      0.000908
      0.01636      0.00204      0.00181         0.005200      0.000647      0.000574
      0.00727      0.00670      0.01017         0.002313      0.002128      0.003232
      0.03952      0.03383      0.02310         0.012564      0.010756      0.007344
     -0.00681     -0.00847      0.00437        -0.002166     -0.002691      0.001391
      0.00708      0.00858     -0.00024         0.002250      0.002728     -0.000077
     -0.01401     -0.00445      0.00020        -0.004454     -0.001415      0.000065
     -0.00142     -0.00245     -0.00546        -0.000451     -0.000780     -0.001737
      0.02731      0.00431     -0.01170         0.008683      0.001371     -0.003718
      0.04914      0.00413      0.00579         0.015623      0.001314      0.001840
      0.00773      0.00212      0.00258         0.002456      0.000674      0.000819
     -0.00846     -0.00201      0.00080        -0.002691     -0.000641      0.000255
      0.01445     -0.00377      0.00938         0.004593     -0.001197      0.002981
     -0.01976     -0.02274      0.00695        -0.006283     -0.007230      0.002210
      0.00731      0.01842      0.00382         0.002324      0.005856      0.001215
      0.03941     -0.01827      0.00651         0.012529     -0.005807      0.002070
     -0.00058      0.02310     -0.01002        -0.000183      0.007343     -0.003187
 -----------------------------------------------------------------------------------
 CHAIN + TOTAL  (eV/Angst)
 ----------------------------------------------
     -0.15623     -0.02981     -0.04620
     -0.01220      0.00981      0.00354
     -0.00678      0.00557     -0.00317
     -0.02618     -0.00850      0.03081
     -0.00288      0.01507      0.00560
      0.01794      0.02257      0.01008
     -0.02166      0.03049     -0.01451
     -0.04062      0.00362     -0.02600
      0.02669      0.01443     -0.00083
      0.04759      0.02614      0.03767
     -0.00377      0.02264      0.00441
      0.01505      0.00738      0.00822
      0.01433      0.01324      0.00556
      0.01037     -0.00389     -0.03749
     -0.00692      0.01346     -0.00065
      0.01821      0.01395      0.00273
      0.00343      0.02082      0.00498
     -0.00452      0.02303      0.00506
      0.03066      0.01308      0.01661
      0.01286     -0.03271     -0.03405
      0.01815      0.00821      0.01387
     -0.00492      0.01468     -0.00589
      0.08092      0.02915      0.03174
     -0.00254      0.02915     -0.01631
     -0.01135      0.01566      0.00486
     -0.01090     -0.00437      0.00903
      0.01527      0.02565     -0.00968
 ----------------------------------------------
 Quasi-Newton relaxation of ions (Broydens 2nd method)
  g(Force)  = 0.111E-01   g(Stress)= 0.000E+00

 retain information from N=  3 steps
 eigenvalues of (default step * inverse Hessian matrix)
  average eigenvalue of G=   1.4281
 eigenvalue spectrum of G is  3.7211  0.2815  0.2815


--------------------------------------------------------------------------------------------------------


 writing wavefunctions
     LOOP+:  cpu time   54.2718: real time   66.7866
    4ORBIT:  cpu time    0.0000: real time    0.0000

 total amount of memory used by VASP on root node   135761. kBytes
========================================================================

   base      :      30000. kBytes
   nonlr-proj:       1275. kBytes
   fftplans  :       2607. kBytes
   grid      :       5367. kBytes
   one-center:         93. kBytes
   wavefun   :      96419. kBytes
 
  
  
 General timing and accounting informations for this job:
 ========================================================
  
                  Total CPU time used (sec):     1896.563
                            User time (sec):     1886.192
                          System time (sec):       10.371
                         Elapsed time (sec):     1944.953
  
                   Maximum memory used (kb):      172556.
                   Average memory used (kb):           0.
  
                          Minor page faults:       113296
                          Major page faults:            0
                 Voluntary context switches:         5787
