
     Program PWSCF v.6.8 starts on 29Dec2023 at 14:23:21 

     This program is part of the open-source Quantum ESPRESSO suite
     for quantum simulation of materials; please cite
         "P. Giannozzi et al., J. Phys.:Condens. Matter 21 395502 (2009);
         "P. Giannozzi et al., J. Phys.:Condens. Matter 29 465901 (2017);
         "P. Giannozzi et al., J. Chem. Phys. 152 154105 (2020);
          URL http://www.quantum-espresso.org", 
     in publications or presentations arising from this work. More details at
     http://www.quantum-espresso.org/quote

     Parallel version (MPI), running on    16 processors

     MPI processes distributed on     1 nodes
     R & G space division:  proc/nbgrp/npool/nimage =      16
     118849 MiB available memory on the printing compute node when the environment starts
 
     Waiting for input...
     Reading input from standard input
Warning: card &CELL ignored
Warning: card / ignored

     Current dimensions of program PWSCF are:
     Max number of different atomic species (ntypx) = 10
     Max number of k-points (npk) =  40000
     Max angular momentum in pseudopotentials (lmaxx) =  4
     Found symmetry operation: I + ( -0.5000 -0.5000 -0.5000)
     This is a supercell, fractional translations are disabled
     Message from routine setup:
     using ibrav=0 with symmetry is DISCOURAGED, use correct ibrav instead

     Subspace diagonalization in iterative solution of the eigenvalue problem:
     a serial algorithm will be used

 
     Parallelization info
     --------------------
     sticks:   dense  smooth     PW     G-vecs:    dense   smooth      PW
     Min          82      82     23                 2238     2238     339
     Max          83      83     24                 2241     2241     342
     Sum        1313    1313    373                35825    35825    5449
 
     Using Slab Decomposition
 


     bravais-lattice index     =            0
     lattice parameter (alat)  =       6.4270  a.u.
     unit-cell volume          =     265.4753 (a.u.)^3
     number of atoms/cell      =            2
     number of atomic types    =            1
     number of electrons       =         2.00
     number of Kohn-Sham states=            5
     kinetic-energy cutoff     =     100.0000  Ry
     charge density cutoff     =     400.0000  Ry
     scf convergence threshold =      1.0E-06
     mixing beta               =       0.7000
     number of iterations used =            8  plain     mixing
     Exchange-correlation= PBE
                           (   1   4   3   4   0   0   0)

     celldm(1)=   6.426996  celldm(2)=   0.000000  celldm(3)=   0.000000
     celldm(4)=   0.000000  celldm(5)=   0.000000  celldm(6)=   0.000000

     crystal axes: (cart. coord. in units of alat)
               a(1) = (   1.000000   0.000000   0.000000 )  
               a(2) = (   0.000000   1.000000   0.000000 )  
               a(3) = (   0.000000   0.000000   1.000000 )  

     reciprocal axes: (cart. coord. in units 2 pi/alat)
               b(1) = (  1.000000  0.000000  0.000000 )  
               b(2) = (  0.000000  1.000000  0.000000 )  
               b(3) = (  0.000000  0.000000  1.000000 )  


     PseudoPot. # 1 for Li read from file:
     ./Li.upf
     MD5 check sum: 0872f838e3c2adf77fa3528799ae018e
     Pseudo is Norm-conserving + core correction, Zval =  1.0
     Generated using &quot;atomic&quot; code by A. Dal Corso  v.6.4.1
     Using radial grid of 1017 points,  1 beta functions with: 
                l(1) =   1

     atomic species   valence    mass     pseudopotential
        Li             1.00     3.00000     Li( 1.00)

     48 Sym. Ops., with inversion, found



   Cartesian axes

     site n.     atom                  positions (alat units)
         1           Li  tau(   1) = (   0.0000000   0.0000000   0.0000000  )
         2           Li  tau(   2) = (   0.5000000   0.5000000   0.5000000  )

     number of k points=    10  Marzari-Vanderbilt smearing, width (Ry)=  0.0100
                       cart. coord. in units 2pi/alat
        k(    1) = (   0.0000000   0.0000000   0.0000000), wk =   0.0160000
        k(    2) = (   0.0000000   0.0000000   0.2000000), wk =   0.0960000
        k(    3) = (   0.0000000   0.0000000   0.4000000), wk =   0.0960000
        k(    4) = (   0.0000000   0.2000000   0.2000000), wk =   0.1920000
        k(    5) = (   0.0000000   0.2000000   0.4000000), wk =   0.3840000
        k(    6) = (   0.0000000   0.4000000   0.4000000), wk =   0.1920000
        k(    7) = (   0.2000000   0.2000000   0.2000000), wk =   0.1280000
        k(    8) = (   0.2000000   0.2000000   0.4000000), wk =   0.3840000
        k(    9) = (   0.2000000   0.4000000   0.4000000), wk =   0.3840000
        k(   10) = (   0.4000000   0.4000000   0.4000000), wk =   0.1280000

     Dense  grid:    35825 G-vectors     FFT dimensions: (  45,  45,  45)

     Estimated max dynamical RAM per process >       1.75 MB

     Estimated total dynamical RAM >      27.93 MB

     Initial potential from superposition of free atoms

     starting charge    1.99078, renormalised to    2.00000
     Starting wfcs are    8 randomized atomic wfcs

     total cpu time spent up to now is        0.2 secs

     Self-consistent Calculation

     iteration #  1     ecut=   100.00 Ry     beta= 0.70
     Davidson diagonalization with overlap
     ethr =  1.00E-02,  avg # of iterations =  2.9

     Threshold (ethr) on eigenvalues was too large:
     Diagonalizing with lowered threshold

     Davidson diagonalization with overlap
     ethr =  1.72E-05,  avg # of iterations =  4.9

     total cpu time spent up to now is        0.4 secs

     total energy              =      -1.28689166 Ry
     estimated scf accuracy    <       0.00036077 Ry

     iteration #  2     ecut=   100.00 Ry     beta= 0.70
     Davidson diagonalization with overlap
     ethr =  1.80E-05,  avg # of iterations =  1.0

     total cpu time spent up to now is        0.4 secs

     total energy              =      -1.28689284 Ry
     estimated scf accuracy    <       0.00003236 Ry

     iteration #  3     ecut=   100.00 Ry     beta= 0.70
     Davidson diagonalization with overlap
     ethr =  1.62E-06,  avg # of iterations =  2.1

     total cpu time spent up to now is        0.4 secs

     End of self-consistent calculation

          k = 0.0000 0.0000 0.0000 (  4457 PWs)   bands (ev):

    -3.0655   6.1658   6.1658   6.1659   9.0276

          k = 0.0000 0.0000 0.2000 (  4485 PWs)   bands (ev):

    -2.6769   3.4118   6.6879   6.6879   9.5476

          k = 0.0000 0.0000 0.4000 (  4492 PWs)   bands (ev):

    -1.4934   0.5300   8.2364   8.2365  10.7275

          k = 0.0000 0.2000 0.2000 (  4473 PWs)   bands (ev):

    -2.2906   3.1259   4.9017   7.2024  11.2554

          k = 0.0000 0.2000 0.4000 (  4481 PWs)   bands (ev):

    -1.1229   0.8273   5.8490   8.1720   8.7168

          k = 0.0000 0.4000 0.4000 (  4478 PWs)   bands (ev):

    -0.0755   1.0608   4.1314   5.4105  10.0467

          k = 0.2000 0.2000 0.2000 (  4476 PWs)   bands (ev):

    -1.9026   3.6533   3.6533   6.7340  11.3238

          k = 0.2000 0.2000 0.4000 (  4468 PWs)   bands (ev):

    -0.7366   1.1936   5.2290   7.6657   7.8247

          k = 0.2000 0.4000 0.4000 (  4505 PWs)   bands (ev):

     0.3609   1.5910   4.0091   5.5178   8.1860

          k = 0.4000 0.4000 0.4000 (  4488 PWs)   bands (ev):

     1.5908   3.1774   3.1774   5.8029   5.8029

     the Fermi energy is     0.7169 ev

!    total energy              =      -1.28689317 Ry
     estimated scf accuracy    <          2.0E-09 Ry
     smearing contrib. (-TS)   =       0.00000826 Ry
     internal energy E=F+TS    =      -1.28690143 Ry

     The total energy is F=E-TS. E is the sum of the following terms:
     one-electron contribution =       0.84766553 Ry
     hartree contribution      =       0.00206330 Ry
     xc contribution           =      -1.00414682 Ry
     ewald contribution        =      -1.13248344 Ry

     convergence has been achieved in   3 iterations

     Forces acting on atoms (cartesian axes, Ry/au):

     atom    1 type  1   force =     0.00000000    0.00000000    0.00000000
     atom    2 type  1   force =     0.00000000   -0.00000000    0.00000000

     Total force =     0.000000     Total SCF correction =     0.000000

     Writing output data file ./outdir/li.save/
 
     init_run     :      0.12s CPU      0.15s WALL (       1 calls)
     electrons    :      0.17s CPU      0.20s WALL (       1 calls)
     forces       :      0.01s CPU      0.01s WALL (       1 calls)

     Called by init_run:
     wfcinit      :      0.02s CPU      0.03s WALL (       1 calls)
     potinit      :      0.01s CPU      0.01s WALL (       1 calls)
     hinit0       :      0.07s CPU      0.09s WALL (       1 calls)

     Called by electrons:
     c_bands      :      0.13s CPU      0.14s WALL (       4 calls)
     sum_band     :      0.03s CPU      0.03s WALL (       4 calls)
     v_of_rho     :      0.02s CPU      0.02s WALL (       4 calls)
     mix_rho      :      0.00s CPU      0.00s WALL (       4 calls)

     Called by c_bands:
     init_us_2    :      0.00s CPU      0.00s WALL (     100 calls)
     cegterg      :      0.13s CPU      0.13s WALL (      40 calls)

     Called by *egterg:
     cdiaghg      :      0.01s CPU      0.01s WALL (     139 calls)
     h_psi        :      0.13s CPU      0.13s WALL (     159 calls)
     g_psi        :      0.00s CPU      0.00s WALL (     109 calls)

     Called by h_psi:
     h_psi:calbec :      0.01s CPU      0.01s WALL (     159 calls)
     vloc_psi     :      0.12s CPU      0.12s WALL (     159 calls)
     add_vuspsi   :      0.00s CPU      0.00s WALL (     159 calls)

     General routines
     calbec       :      0.01s CPU      0.01s WALL (     199 calls)
     fft          :      0.07s CPU      0.08s WALL (      51 calls)
     ffts         :      0.00s CPU      0.00s WALL (       4 calls)
     fftw         :      0.13s CPU      0.13s WALL (    1452 calls)
 
     Parallel routines
 
     PWSCF        :      0.42s CPU      0.64s WALL

 
   This run was terminated on:  14:23:22  29Dec2023            

=------------------------------------------------------------------------------=
   JOB DONE.
=------------------------------------------------------------------------------=
