 vasp.5.4.1 24Jun15 (build Jun 17 2016 15:57:28) complex                        
  
 executed on           IFC91_ompi date 2016.11.24  10:58:08
 running on   16 total cores
 distrk:  each k-point on   16 cores,    1 groups
 distr:  one band on NCORES_PER_BAND=  16 cores,    1 groups


--------------------------------------------------------------------------------------------------------


 INCAR:
 POTCAR:    PAW_PBE Bi_pv 29Jan08 GW ready        
 POTCAR:   PAW_PBE Se 06Sep2000                   

 ----------------------------------------------------------------------------- 
|                                                                             |
|           W    W    AA    RRRRR   N    N  II  N    N   GGGG   !!!           |
|           W    W   A  A   R    R  NN   N  II  NN   N  G    G  !!!           |
|           W    W  A    A  R    R  N N  N  II  N N  N  G       !!!           |
|           W WW W  AAAAAA  RRRRR   N  N N  II  N  N N  G  GGG   !            |
|           WW  WW  A    A  R   R   N   NN  II  N   NN  G    G                |
|           W    W  A    A  R    R  N    N  II  N    N   GGGG   !!!           |
|                                                                             |
|      For optimal performance we recommend to set                            |
|        NCORE= 4 - approx SQRT( number of cores)                             |
|      NCORE specifies how many cores store one orbital (NPAR=cpu/NCORE).     |
|      This setting can  greatly improve the performance of VASP for DFT.     |
|      The default, NPAR=number of cores might be grossly inefficient         |
|      on modern multi-core architectures or massively parallel machines.     |
|      Do your own testing !!!!                                               |
|      Unfortunately you need to use the default for GW and RPA calculations. |
|      (for HF NCORE is supported but not extensively tested yet)             |
|                                                                             |
 ----------------------------------------------------------------------------- 

 POTCAR:    PAW_PBE Bi_pv 29Jan08 GW ready        
   VRHFIN =Bi:                                                                  
   LEXCH  = PE                                                                  
   EATOM  =  4638.5322 eV,  340.9225 Ry                                         
                                                                                
   TITEL  = PAW_PBE Bi_pv 29Jan08 GW ready                                      
   LULTRA =        F    use ultrasoft PP ?                                      
   IUNSCR =        1    unscreen: 0-lin 1-nonlin 2-no                           
   RPACOR =    2.200    partial core radius                                     
   POMASS =  208.980; ZVAL   =   21.000    mass and valenz                      
   RCORE  =    2.500    outmost cutoff radius                                   
   RWIGS  =    3.090; RWIGS  =    1.635    wigner-seitz radius (au A)           
   ENMAX  =  309.187; ENMIN  =  231.890 eV                                      
   ICORE  =        3    local potential                                         
   LCOR   =        T    correct aug charges                                     
   LPAW   =        T    paw PP                                                  
   EAUG   =  442.899                                                            
   DEXC   =    0.000                                                            
   RMAX   =    2.622    core radius for proj-oper                               
   RAUG   =    1.300    factor for augmentation sphere                          
   RDEP   =    2.650    radius for radial grids                                 
   QCUT   =   -4.767; QGAM   =    9.534    optimization parameters              
                                                                                
   Description                                                                  
     l     E      TYP  RCUT    TYP  RCUT                                        
     1   -95.81     23  1.900                                                   
     1    -4.57     23  1.900                                                   
     2   -27.08     23  2.200                                                   
     2   -28.44     23  2.200                                                   
     0   -14.47     23  2.500                                                   
     0     6.80     23  2.500                                                   
     3    -1.36      7  2.200                                                   
  local pseudopotential read in
  partial core-charges read in
  atomic valenz-charges read in
  non local Contribution for L=           1  read in
    real space projection operators read in
  non local Contribution for L=           1  read in
    real space projection operators read in
  non local Contribution for L=           2  read in
    real space projection operators read in
  non local Contribution for L=           2  read in
    real space projection operators read in
  non local Contribution for L=           0  read in
    real space projection operators read in
  non local Contribution for L=           0  read in
    real space projection operators read in
    PAW grid and wavefunctions read in
 
   number of l-projection  operators is LMAX  =           6
   number of lm-projection operators is LMMAX =          18
 
 POTCAR:   PAW_PBE Se 06Sep2000                   
   VRHFIN =Se: s2p4                                                             
   LEXCH  = PE                                                                  
   EATOM  =   256.9644 eV,   18.8864 Ry                                         
                                                                                
   TITEL  = PAW_PBE Se 06Sep2000                                                
   LULTRA =        F    use ultrasoft PP ?                                      
   IUNSCR =        1    unscreen: 0-lin 1-nonlin 2-no                           
   RPACOR =    1.900    partial core radius                                     
   POMASS =   78.960; ZVAL   =    6.000    mass and valenz                      
   RCORE  =    2.100    outmost cutoff radius                                   
   RWIGS  =    2.200; RWIGS  =    1.164    wigner-seitz radius (au A)           
   ENMAX  =  211.534; ENMIN  =  158.651 eV                                      
   ICORE  =        3    local potential                                         
   LCOR   =        T    correct aug charges                                     
   LPAW   =        T    paw PP                                                  
   EAUG   =  446.842                                                            
   DEXC   =    -.031                                                            
   RMAX   =    3.170    core radius for proj-oper                               
   RAUG   =    1.300    factor for augmentation sphere                          
   RDEP   =    2.177    radius for radial grids                                 
   QCUT   =   -3.943; QGAM   =    7.886    optimization parameters              
                                                                                
   Description                                                                  
     l     E      TYP  RCUT    TYP  RCUT                                        
     0   .000     23  2.100                                                     
     0   .000     23  2.100                                                     
     1   .000     23  2.100                                                     
     1   .000     23  2.100                                                     
     2   .000     23  2.100                                                     
     3  -.100      7  2.100                                                     
  local pseudopotential read in
  partial core-charges read in
  atomic valenz-charges read in
  non local Contribution for L=           0  read in
    real space projection operators read in
  non local Contribution for L=           0  read in
    real space projection operators read in
  non local Contribution for L=           1  read in
    real space projection operators read in
  non local Contribution for L=           1  read in
    real space projection operators read in
  non local Contribution for L=           2  read in
    real space projection operators read in
    PAW grid and wavefunctions read in
 
   number of l-projection  operators is LMAX  =           5
   number of lm-projection operators is LMMAX =          13
 

 ----------------------------------------------------------------------------- 
|                                                                             |
|  ADVICE TO THIS USER RUNNING 'VASP/VAMP'   (HEAR YOUR MASTER'S VOICE ...):  |
|                                                                             |
|      You have a (more or less) 'small supercell' and for smaller cells      |
|      it is recommended  to use the reciprocal-space projection scheme!      |
|      The real space optimization is not  efficient for small cells and it   |
|      is also less accurate ...                                              |
|      Therefore set LREAL=.FALSE. in the  INCAR file                         |
|                                                                             |
 ----------------------------------------------------------------------------- 

 Optimization of the real space projectors (new method)

 maximal supplied QI-value         = 15.12
 optimisation between [QCUT,QGAM] = [ 10.73, 21.47] = [ 32.26,129.05] Ry 
 Optimized for a Real-space Cutoff    1.44 Angstroem

   l    n(q)    QCUT    max X(q) W(low)/X(q) W(high)/X(q)  e(spline) 
   1      9    10.734     2.850    0.13E-03    0.22E-03    0.28E-06
   1      9    10.734     6.992    0.16E-03    0.36E-03    0.33E-06
   2      8    10.734    50.816    0.52E-04    0.12E-03    0.13E-06
   2      8    10.734    51.435    0.54E-04    0.12E-03    0.13E-06
   0      9    10.734    20.448    0.23E-03    0.26E-04    0.20E-06
   0      9    10.734     8.797    0.34E-03    0.39E-04    0.29E-06
 Optimization of the real space projectors (new method)

 maximal supplied QI-value         = 17.95
 optimisation between [QCUT,QGAM] = [ 10.59, 21.36] = [ 31.42,127.80] Ry 
 Optimized for a Real-space Cutoff    1.28 Angstroem

   l    n(q)    QCUT    max X(q) W(low)/X(q) W(high)/X(q)  e(spline) 
   0      8    10.592     6.499    0.15E-04    0.12E-04    0.11E-07
   0      8    10.592    52.623    0.14E-03    0.24E-03    0.47E-07
   1      8    10.592     4.229    0.15E-04    0.48E-04    0.38E-07
   1      8    10.592    29.991    0.48E-03    0.71E-04    0.83E-07
   2      7    10.592     3.719    0.14E-03    0.26E-03    0.49E-07
  PAW_PBE Bi_pv 29Jan08 GW ready        :
 energy of atom  1       EATOM=-4638.5322
 kinetic energy error for atom=    0.0832 (will be added to EATOM!!)
 PAW_PBE Se 06Sep2000                   :
 energy of atom  2       EATOM= -256.9644
 kinetic energy error for atom=    0.0012 (will be added to EATOM!!)
 
 
 POSCAR: i2a=[Bi,Se] ; Bi2Se3.su.static.2        
  positions in direct lattice
  No initial velocities read in
 exchange correlation table for  LEXCH =        8
   RHO(1)=    0.500       N(1)  =     2000
   RHO(2)=  100.500       N(2)  =     4000
 


--------------------------------------------------------------------------------------------------------


 ion  position               nearest neighbor table
   1  0.398  0.398  0.398-   5 2.79   5 2.79   5 2.79   3 3.00   3 3.00   3 3.00
   2  0.602  0.602  0.602-   4 2.79   4 2.79   4 2.79   3 3.00   3 3.00   3 3.00
   3  0.000  0.000  0.000-   2 3.00   1 3.00   2 3.00   1 3.00   2 3.00   1 3.00
   4  0.216  0.216  0.216-   2 2.79   2 2.79   2 2.79
   5  0.784  0.784  0.784-   1 2.79   1 2.79   1 2.79
 
  LATTYP: Found a trigonal (rhomboedric) cell.
 ALAT       =     9.9233410000
 COS(alpha) =     0.9166474496
  
  Lattice vectors:
  
 A1 = (   3.9663270000,   0.0000000000,   9.0962050000)
 A2 = (   1.8969180000,   3.4833100000,   9.0962050000)
 A3 = (   0.0000000000,   0.0000000000,   9.9233410000)


Analysis of symmetry for initial positions (statically):
=====================================================================
 Subroutine PRICEL returns:
 Original cell was already a primitive cell.
 

 Routine SETGRP: Setting up the symmetry group for a 
 trigonal (rhombohedral) supercell.


 Subroutine GETGRP returns: Found 12 space group operations
 (whereof 12 operations were pure point group operations)
 out of a pool of 12 trial point group operations.


The static configuration has the point symmetry D_3d.


Analysis of symmetry for dynamics (positions and initial velocities):
=====================================================================
 Subroutine PRICEL returns:
 Original cell was already a primitive cell.
 

 Routine SETGRP: Setting up the symmetry group for a 
 trigonal (rhombohedral) supercell.


 Subroutine GETGRP returns: Found 12 space group operations
 (whereof 12 operations were pure point group operations)
 out of a pool of 12 trial point group operations.


The dynamic configuration has the point symmetry D_3d.
 
 
 KPOINTS: Automatic Mesh                          

Automatic generation of k-mesh.
Space group operators:
 irot       det(A)        alpha          n_x          n_y          n_z        tau_x        tau_y        tau_z
    1     1.000000     0.000001     1.000000     0.000000     0.000000     0.000000     0.000000     0.000000
    2    -1.000000     0.000001     1.000000     0.000000     0.000000     0.000000     0.000000     0.000000
    3     1.000000   179.999999     0.468184     0.859725    -0.204148     0.000000     0.000000     0.000000
    4    -1.000000   179.999999     0.468184     0.859725    -0.204148     0.000000     0.000000     0.000000
    5     1.000000   120.000000    -0.202663    -0.120400    -0.971819     0.000000     0.000000     0.000000
    6    -1.000000   120.000000    -0.202663    -0.120400    -0.971819     0.000000     0.000000     0.000000
    7     1.000000   180.000000     0.510756    -0.859725     0.000000     0.000000     0.000000     0.000000
    8    -1.000000   180.000000     0.510756    -0.859725     0.000000     0.000000     0.000000     0.000000
    9     1.000000   120.000000     0.202663     0.120400     0.971819     0.000000     0.000000     0.000000
   10    -1.000000   120.000000     0.202663     0.120400     0.971819     0.000000     0.000000     0.000000
   11     1.000000   180.000000     0.978940     0.000000    -0.204148     0.000000     0.000000     0.000000
   12    -1.000000   180.000000     0.978940     0.000000    -0.204148     0.000000     0.000000     0.000000
 
 Subroutine IBZKPT returns following result:
 ===========================================
 
 Found     65 irreducible k-points:
 
 Following reciprocal coordinates:
            Coordinates               Weight
  0.000000  0.000000  0.000000      1.000000
  0.125000  0.000000  0.000000      6.000000
  0.250000  0.000000  0.000000      6.000000
  0.375000  0.000000  0.000000      6.000000
  0.500000  0.000000  0.000000      3.000000
  0.125000  0.125000  0.000000      6.000000
  0.250000  0.125000  0.000000     12.000000
  0.375000  0.125000  0.000000     12.000000
  0.500000  0.125000  0.000000     12.000000
 -0.375000  0.125000  0.000000     12.000000
 -0.250000  0.125000  0.000000     12.000000
 -0.125000  0.125000  0.000000      6.000000
  0.250000  0.250000  0.000000      6.000000
  0.375000  0.250000  0.000000     12.000000
  0.500000  0.250000  0.000000     12.000000
 -0.375000  0.250000  0.000000     12.000000
 -0.250000  0.250000  0.000000      6.000000
  0.375000  0.375000  0.000000      6.000000
  0.500000  0.375000  0.000000     12.000000
 -0.375000  0.375000  0.000000      6.000000
  0.500000  0.500000  0.000000      3.000000
  0.125000  0.125000  0.125000      2.000000
  0.250000  0.125000  0.125000      6.000000
  0.375000  0.125000  0.125000      6.000000
  0.500000  0.125000  0.125000      6.000000
 -0.375000  0.125000  0.125000      6.000000
 -0.250000  0.125000  0.125000      6.000000
 -0.125000  0.125000  0.125000      6.000000
  0.250000  0.250000  0.125000      6.000000
  0.375000  0.250000  0.125000     12.000000
  0.500000  0.250000  0.125000     12.000000
 -0.375000  0.250000  0.125000     12.000000
 -0.250000  0.250000  0.125000     12.000000
 -0.125000  0.250000  0.125000     12.000000
  0.375000  0.375000  0.125000      6.000000
  0.500000  0.375000  0.125000     12.000000
 -0.375000  0.375000  0.125000     12.000000
 -0.250000  0.375000  0.125000     12.000000
 -0.125000  0.375000  0.125000     12.000000
  0.500000  0.500000  0.125000      6.000000
 -0.375000  0.500000  0.125000     12.000000
 -0.250000  0.500000  0.125000     12.000000
 -0.125000  0.500000  0.125000      6.000000
 -0.375000 -0.375000  0.125000      6.000000
 -0.250000 -0.375000  0.125000     12.000000
 -0.250000 -0.250000  0.125000      6.000000
  0.250000  0.250000  0.250000      2.000000
  0.375000  0.250000  0.250000      6.000000
  0.500000  0.250000  0.250000      6.000000
 -0.375000  0.250000  0.250000      6.000000
 -0.250000  0.250000  0.250000      6.000000
  0.375000  0.375000  0.250000      6.000000
  0.500000  0.375000  0.250000     12.000000
 -0.375000  0.375000  0.250000     12.000000
 -0.250000  0.375000  0.250000     12.000000
  0.500000  0.500000  0.250000      6.000000
 -0.375000  0.500000  0.250000     12.000000
 -0.250000  0.500000  0.250000      6.000000
 -0.375000 -0.375000  0.250000      6.000000
  0.375000  0.375000  0.375000      2.000000
  0.500000  0.375000  0.375000      6.000000
 -0.375000  0.375000  0.375000      6.000000
  0.500000  0.500000  0.375000      6.000000
 -0.375000  0.500000  0.375000      6.000000
  0.500000  0.500000  0.500000      1.000000
 
 Following cartesian coordinates:
            Coordinates               Weight
  0.000000  0.000000  0.000000      1.000000
  0.031515 -0.017162  0.000000      6.000000
  0.063031 -0.034325  0.000000      6.000000
  0.094546 -0.051487  0.000000      6.000000
  0.126061 -0.068650  0.000000      3.000000
  0.031515  0.018723  0.000000      6.000000
  0.063031  0.001561  0.000000     12.000000
  0.094546 -0.015602  0.000000     12.000000
  0.126061 -0.032764  0.000000     12.000000
 -0.094546  0.087373  0.000000     12.000000
 -0.063031  0.070210  0.000000     12.000000
 -0.031515  0.053048  0.000000      6.000000
  0.063031  0.037446  0.000000      6.000000
  0.094546  0.020284  0.000000     12.000000
  0.126061  0.003121  0.000000     12.000000
 -0.094546  0.123258  0.000000     12.000000
 -0.063031  0.106096  0.000000      6.000000
  0.094546  0.056169  0.000000      6.000000
  0.126061  0.039007  0.000000     12.000000
 -0.094546  0.159143  0.000000      6.000000
  0.126061  0.074892  0.000000      3.000000
  0.002627  0.001561  0.012597      2.000000
  0.034142 -0.015602  0.012597      6.000000
  0.065657 -0.032764  0.012597      6.000000
  0.097173 -0.049927  0.012597      6.000000
 -0.123434  0.070210  0.012597      6.000000
 -0.091919  0.053048  0.012597      6.000000
 -0.060404  0.035885  0.012597      6.000000
  0.034142  0.020284  0.012597      6.000000
  0.065657  0.003121  0.012597     12.000000
  0.097173 -0.014041  0.012597     12.000000
 -0.123434  0.106096  0.012597     12.000000
 -0.091919  0.088933  0.012597     12.000000
 -0.060404  0.071771  0.012597     12.000000
  0.065657  0.039007  0.012597      6.000000
  0.097173  0.021844  0.012597     12.000000
 -0.123434  0.141981  0.012597     12.000000
 -0.091919  0.124819  0.012597     12.000000
 -0.060404  0.107656  0.012597     12.000000
  0.097173  0.057730  0.012597      6.000000
 -0.123434  0.177866  0.012597     12.000000
 -0.091919  0.160704  0.012597     12.000000
 -0.060404  0.143542  0.012597      6.000000
 -0.123434 -0.073331  0.012597      6.000000
 -0.091919 -0.090494  0.012597     12.000000
 -0.091919 -0.054608  0.012597      6.000000
  0.005254  0.003121  0.025193      2.000000
  0.036769 -0.014041  0.025193      6.000000
  0.068284 -0.031204  0.025193      6.000000
 -0.152323  0.088933  0.025193      6.000000
 -0.120807  0.071771  0.025193      6.000000
  0.036769  0.021844  0.025193      6.000000
  0.068284  0.004682  0.025193     12.000000
 -0.152323  0.124819  0.025193     12.000000
 -0.120807  0.107656  0.025193     12.000000
  0.068284  0.040567  0.025193      6.000000
 -0.152323  0.160704  0.025193     12.000000
 -0.120807  0.143542  0.025193      6.000000
 -0.152323 -0.090494  0.025193      6.000000
  0.007881  0.004682  0.037790      2.000000
  0.039396 -0.012481  0.037790      6.000000
 -0.181211  0.107656  0.037790      6.000000
  0.039396  0.023405  0.037790      6.000000
 -0.181211  0.143542  0.037790      6.000000
  0.010508  0.006242  0.050386      1.000000
 


--------------------------------------------------------------------------------------------------------




 Dimension of arrays:
   k-points           NKPTS =     65   k-points in BZ     NKDIM =     65   number of bands    NBANDS=     38
   number of dos      NEDOS =    301   number of ions     NIONS =      5
   non local maximal  LDIM  =      6   non local SUM 2l+1 LMDIM =     18
   total plane-waves  NPLWV = 157464
   max r-space proj   IRMAX =  14317   max aug-charges    IRDMAX=  50952
   dimension x,y,z NGX =    54 NGY =   54 NGZ =   54
   dimension x,y,z NGXF=   108 NGYF=  108 NGZF=  108
   support grid    NGXF=   108 NGYF=  108 NGZF=  108
   ions per type =               2   3
 NGX,Y,Z   is equivalent  to a cutoff of   9.05,  9.05,  9.05 a.u.
 NGXF,Y,Z  is equivalent  to a cutoff of  18.09, 18.09, 18.09 a.u.


 I would recommend the setting:
   dimension x,y,z NGX =    51 NGY =   51 NGZ =   51
 SYSTEM =  obtained from ('Bi2Se3', 'static', 1) b 
 POSCAR =  i2a=[Bi,Se] ; Bi2Se3.su.static.2        

 Startparameter for this run:
   NWRITE =      2    write-flag & timer
   PREC   = normal    normal or accurate (medium, high low for compatibility)
   ISTART =      0    job   : 0-new  1-cont  2-samecut
   ICHARG =      2    charge: 1-file 2-atom 10-const
   ISPIN  =      1    spin polarized calculation?
   LNONCOLLINEAR =      F non collinear calculations
   LSORBIT =      F    spin-orbit coupling
   INIWAV =      1    electr: 0-lowe 1-rand  2-diag
   LASPH  =      F    aspherical Exc in radial PAW
   METAGGA=      F    non-selfconsistent MetaGGA calc.

 Electronic Relaxation 1
   ENCUT  =  441.0 eV  32.41 Ry    5.69 a.u.  16.99 16.99 16.99*2*pi/ulx,y,z
   ENINI  =  441.0     initial cutoff
   ENAUG  =  776.2 eV  augmentation charge cutoff
   NELM   =     50;   NELMIN=  4; NELMDL= -5     # of ELM steps 
   EDIFF  = 0.6E-05   stopping-criterion for ELM
   LREAL  =      T    real-space projection
   NLSPLINE    = F    spline interpolate recip. space projectors
   LCOMPAT=      F    compatible to vasp.4.4
   GGA_COMPAT  = T    GGA compatible to vasp.4.4-vasp.4.6
   LMAXPAW     = -100 max onsite density
   LMAXMIX     =    2 max onsite mixed and CHGCAR
   VOSKOWN=      0    Vosko Wilk Nusair interpolation
   ROPT   =   -0.00050  -0.00050
 Ionic relaxation
   EDIFFG = 0.0E+00   stopping-criterion for IOM
   NSW    =      0    number of steps for IOM
   NBLOCK =      1;   KBLOCK =      1    inner block; outer block 
   IBRION =     -1    ionic relax: 0-MD 1-quasi-New 2-CG
   NFREE  =      0    steps in history (QN), initial steepest desc. (CG)
   ISIF   =      2    stress and relaxation
   IWAVPR =     10    prediction:  0-non 1-charg 2-wave 3-comb
   ISYM   =      2    0-nonsym 1-usesym 2-fastsym
   LCORR  =      T    Harris-Foulkes like correction to forces

   POTIM  = 0.5000    time-step for ionic-motion
   TEIN   =    0.0    initial temperature
   TEBEG  =    0.0;   TEEND  =   0.0 temperature during run
   SMASS  =  -3.00    Nose mass-parameter (am)
   estimated Nose-frequenzy (Omega)   =  0.10E-29 period in steps =****** mass=  -0.225E-26a.u.
   SCALEE = 1.0000    scale energy and forces
   NPACO  =    256;   APACO  = 16.0  distance and # of slots for P.C.
   PSTRESS=    0.0 pullay stress

  Mass of Ions in am
   POMASS = 208.98 78.96
  Ionic Valenz
   ZVAL   =  21.00  6.00
  Atomic Wigner-Seitz radii
   RWIGS  =  -1.00 -1.00
  virtual crystal weights 
   VCA    =   1.00  1.00
   NELECT =      60.0000    total number of electrons
   NUPDOWN=      -1.0000    fix difference up-down

 DOS related values:
   EMIN   =  10.00;   EMAX   =-10.00  energy-range for DOS
   EFERMI =   0.00
   ISMEAR =     2;   SIGMA  =   0.20  broadening in eV -4-tet -1-fermi 0-gaus

 Electronic relaxation 2 (details)
   IALGO  =     38    algorithm
   LDIAG  =      T    sub-space diagonalisation (order eigenvalues)
   LSUBROT=      F    optimize rotation matrix (better conditioning)
   TURBO    =      0    0=normal 1=particle mesh
   IRESTART =      0    0=no restart 2=restart with 2 vectors
   NREBOOT  =      0    no. of reboots
   NMIN     =      0    reboot dimension
   EREF     =   0.00    reference energy to select bands
   IMIX   =      4    mixing-type and parameters
     AMIX     =   0.40;   BMIX     =  1.00
     AMIX_MAG =   1.60;   BMIX_MAG =  1.00
     AMIN     =   0.10
     WC   =   100.;   INIMIX=   1;  MIXPRE=   1;  MAXMIX=  40

 Intra band minimization:
   WEIMIN = 0.0000     energy-eigenvalue tresh-hold
   EBREAK =  0.00E+00  absolut break condition
   DEPER  =   0.30     relativ break condition  

   TIME   =   0.40     timestep for ELM

  volume/ion in A,a.u.               =      27.42       185.04
  Fermi-wavevector in a.u.,A,eV,Ry     =   1.242927  2.348792 21.019209  1.544868
  Thomas-Fermi vector in A             =   2.377260
 
 Write flags
   LWAVE  =      T    write WAVECAR
   LCHARG =      T    write CHGCAR
   LVTOT  =      F    write LOCPOT, total local potential
   LVHAR  =      F    write LOCPOT, Hartree potential only
   LELF   =      F    write electronic localiz. function (ELF)
   LORBIT =      0    0 simple, 1 ext, 2 COOP (PROOUT)


 Dipole corrections
   LMONO  =      F    monopole corrections only (constant potential shift)
   LDIPOL =      F    correct potential (dipole corrections)
   IDIPOL =      0    1-x, 2-y, 3-z, 4-all directions 
   EPSILON=  1.0000000 bulk dielectric constant

 Exchange correlation treatment:
   GGA     =    --    GGA type
   LEXCH   =     8    internal setting for exchange type
   VOSKOWN=      0    Vosko Wilk Nusair interpolation
   LHFCALC =     F    Hartree Fock is set to
   LHFONE  =     F    Hartree Fock one center treatment
   AEXX    =    0.0000 exact exchange contribution

 Linear response parameters
   LEPSILON=     F    determine dielectric tensor
   LRPA    =     F    only Hartree local field effects (RPA)
   LNABLA  =     F    use nabla operator in PAW spheres
   LVEL    =     F    velocity operator in full k-point grid
   LINTERFAST=   F  fast interpolation
   KINTER  =     0    interpolate to denser k-point grid
   CSHIFT  =0.1000    complex shift for real part using Kramers Kronig
   OMEGAMAX=  -1.0    maximum frequency
   DEG_THRESHOLD= 0.2000000E-02 threshold for treating states as degnerate
   RTIME   =    0.100 relaxation time in fs

 Orbital magnetization related:
   ORBITALMAG=     F  switch on orbital magnetization
   LCHIMAG   =     F  perturbation theory with respect to B field
   DQ        =  0.001000  dq finite difference perturbation B field



--------------------------------------------------------------------------------------------------------


 Static calculation
 charge density and potential will be updated during run
 non-spin polarized calculation
 Variant of blocked Davidson
 Davidson routine will perform the subspace rotation
 perform sub-space diagonalisation
    after iterative eigenvector-optimisation
 modified Broyden-mixing scheme, WC =      100.0
 initial mixing is a Kerker type mixing with AMIX =  0.4000 and BMIX =      1.0000
 Hartree-type preconditioning will be used
 using additional bands            8
 real space projection scheme for non local part
 use partial core corrections
 calculate Harris-corrections to forces 
   (improved forces if not selfconsistent)
 use gradient corrections 
 use of overlap-Matrix (Vanderbilt PP)
 Methfessel and Paxton  Order N= 2 SIGMA  =   0.20


--------------------------------------------------------------------------------------------------------


  energy-cutoff  :      441.00
  volume of cell :      137.10
      direct lattice vectors                 reciprocal lattice vectors
     3.966327000  0.000000000  9.096205000     0.252122430 -0.137299171  0.000000000
     1.896918000  3.483310000  9.096205000     0.000000000  0.287083263  0.000000000
     0.000000000  0.000000000  9.923341000    -0.231107377 -0.137299202  0.100772512

  length of vectors
     9.923340933  9.923340761  9.923341000     0.287083232  0.287083263  0.287083245


 
 k-points in units of 2pi/SCALE and weight: Automatic Mesh                          
   0.00000000  0.00000000  0.00000000       0.002
   0.03151530 -0.01716240  0.00000000       0.012
   0.06303061 -0.03432479  0.00000000       0.012
   0.09454591 -0.05148719  0.00000000       0.012
   0.12606121 -0.06864959  0.00000000       0.006
   0.03151530  0.01872301  0.00000000       0.012
   0.06303061  0.00156062  0.00000000       0.023
   0.09454591 -0.01560178  0.00000000       0.023
   0.12606121 -0.03276418  0.00000000       0.023
  -0.09454591  0.08737260  0.00000000       0.023
  -0.06303061  0.07021020  0.00000000       0.023
  -0.03151530  0.05304780  0.00000000       0.012
   0.06303061  0.03744602  0.00000000       0.012
   0.09454591  0.02028363  0.00000000       0.023
   0.12606121  0.00312123  0.00000000       0.023
  -0.09454591  0.12325800  0.00000000       0.023
  -0.06303061  0.10609561  0.00000000       0.012
   0.09454591  0.05616903  0.00000000       0.012
   0.12606121  0.03900664  0.00000000       0.023
  -0.09454591  0.15914341  0.00000000       0.012
   0.12606121  0.07489205  0.00000000       0.006
   0.00262688  0.00156061  0.01259656       0.004
   0.03414219 -0.01560179  0.01259656       0.012
   0.06565749 -0.03276418  0.01259656       0.012
   0.09717279 -0.04992658  0.01259656       0.012
  -0.12343433  0.07021020  0.01259656       0.012
  -0.09191903  0.05304780  0.01259656       0.012
  -0.06040373  0.03588540  0.01259656       0.012
   0.03414219  0.02028362  0.01259656       0.012
   0.06565749  0.00312123  0.01259656       0.023
   0.09717279 -0.01404117  0.01259656       0.023
  -0.12343433  0.10609560  0.01259656       0.023
  -0.09191903  0.08893321  0.01259656       0.023
  -0.06040373  0.07177081  0.01259656       0.023
   0.06565749  0.03900663  0.01259656       0.012
   0.09717279  0.02184424  0.01259656       0.023
  -0.12343433  0.14198101  0.01259656       0.023
  -0.09191903  0.12481862  0.01259656       0.023
  -0.06040373  0.10765622  0.01259656       0.023
   0.09717279  0.05772965  0.01259656       0.012
  -0.12343433  0.17786642  0.01259656       0.023
  -0.09191903  0.16070402  0.01259656       0.023
  -0.06040373  0.14354163  0.01259656       0.012
  -0.12343433 -0.07333143  0.01259656       0.012
  -0.09191903 -0.09049383  0.01259656       0.023
  -0.09191903 -0.05460842  0.01259656       0.012
   0.00525376  0.00312122  0.02519313       0.004
   0.03676907 -0.01404117  0.02519313       0.012
   0.06828437 -0.03120357  0.02519313       0.012
  -0.15232276  0.08893320  0.02519313       0.012
  -0.12080745  0.07177081  0.02519313       0.012
   0.03676907  0.02184423  0.02519313       0.012
   0.06828437  0.00468184  0.02519313       0.023
  -0.15232276  0.12481861  0.02519313       0.023
  -0.12080745  0.10765622  0.02519313       0.023
   0.06828437  0.04056725  0.02519313       0.012
  -0.15232276  0.16070402  0.02519313       0.023
  -0.12080745  0.14354162  0.02519313       0.012
  -0.15232276 -0.09049384  0.02519313       0.012
   0.00788064  0.00468183  0.03778969       0.004
   0.03939595 -0.01248056  0.03778969       0.012
  -0.18121118  0.10765621  0.03778969       0.012
   0.03939595  0.02340484  0.03778969       0.012
  -0.18121118  0.14354162  0.03778969       0.012
   0.01050753  0.00624244  0.05038626       0.002
 
 k-points in reciprocal lattice and weights: Automatic Mesh                          
   0.00000000  0.00000000  0.00000000       0.002
   0.12500000  0.00000000  0.00000000       0.012
   0.25000000  0.00000000  0.00000000       0.012
   0.37500000  0.00000000  0.00000000       0.012
   0.50000000  0.00000000  0.00000000       0.006
   0.12500000  0.12500000  0.00000000       0.012
   0.25000000  0.12500000  0.00000000       0.023
   0.37500000  0.12500000  0.00000000       0.023
   0.50000000  0.12500000  0.00000000       0.023
  -0.37500000  0.12500000  0.00000000       0.023
  -0.25000000  0.12500000  0.00000000       0.023
  -0.12500000  0.12500000  0.00000000       0.012
   0.25000000  0.25000000  0.00000000       0.012
   0.37500000  0.25000000  0.00000000       0.023
   0.50000000  0.25000000  0.00000000       0.023
  -0.37500000  0.25000000  0.00000000       0.023
  -0.25000000  0.25000000  0.00000000       0.012
   0.37500000  0.37500000  0.00000000       0.012
   0.50000000  0.37500000  0.00000000       0.023
  -0.37500000  0.37500000  0.00000000       0.012
   0.50000000  0.50000000  0.00000000       0.006
   0.12500000  0.12500000  0.12500000       0.004
   0.25000000  0.12500000  0.12500000       0.012
   0.37500000  0.12500000  0.12500000       0.012
   0.50000000  0.12500000  0.12500000       0.012
  -0.37500000  0.12500000  0.12500000       0.012
  -0.25000000  0.12500000  0.12500000       0.012
  -0.12500000  0.12500000  0.12500000       0.012
   0.25000000  0.25000000  0.12500000       0.012
   0.37500000  0.25000000  0.12500000       0.023
   0.50000000  0.25000000  0.12500000       0.023
  -0.37500000  0.25000000  0.12500000       0.023
  -0.25000000  0.25000000  0.12500000       0.023
  -0.12500000  0.25000000  0.12500000       0.023
   0.37500000  0.37500000  0.12500000       0.012
   0.50000000  0.37500000  0.12500000       0.023
  -0.37500000  0.37500000  0.12500000       0.023
  -0.25000000  0.37500000  0.12500000       0.023
  -0.12500000  0.37500000  0.12500000       0.023
   0.50000000  0.50000000  0.12500000       0.012
  -0.37500000  0.50000000  0.12500000       0.023
  -0.25000000  0.50000000  0.12500000       0.023
  -0.12500000  0.50000000  0.12500000       0.012
  -0.37500000 -0.37500000  0.12500000       0.012
  -0.25000000 -0.37500000  0.12500000       0.023
  -0.25000000 -0.25000000  0.12500000       0.012
   0.25000000  0.25000000  0.25000000       0.004
   0.37500000  0.25000000  0.25000000       0.012
   0.50000000  0.25000000  0.25000000       0.012
  -0.37500000  0.25000000  0.25000000       0.012
  -0.25000000  0.25000000  0.25000000       0.012
   0.37500000  0.37500000  0.25000000       0.012
   0.50000000  0.37500000  0.25000000       0.023
  -0.37500000  0.37500000  0.25000000       0.023
  -0.25000000  0.37500000  0.25000000       0.023
   0.50000000  0.50000000  0.25000000       0.012
  -0.37500000  0.50000000  0.25000000       0.023
  -0.25000000  0.50000000  0.25000000       0.012
  -0.37500000 -0.37500000  0.25000000       0.012
   0.37500000  0.37500000  0.37500000       0.004
   0.50000000  0.37500000  0.37500000       0.012
  -0.37500000  0.37500000  0.37500000       0.012
   0.50000000  0.50000000  0.37500000       0.012
  -0.37500000  0.50000000  0.37500000       0.012
   0.50000000  0.50000000  0.50000000       0.002
 
 position of ions in fractional coordinates (direct lattice) 
   0.39843500  0.39843500  0.39843500
   0.60156500  0.60156500  0.60156500
   0.00000000  0.00000000  0.00000000
   0.21571500  0.21571500  0.21571500
   0.78428500  0.78428500  0.78428500
 
 position of ions in cartesian coordinates  (Angst):
   2.33612202  1.38787262 11.20229925
   3.52712298  2.09543738 16.91345175
   0.00000000  0.00000000  0.00000000
   1.26478990  0.75140222  6.06498923
   4.59845510  2.73190778 22.05076177
 


--------------------------------------------------------------------------------------------------------


 k-point  1 :   0.0000 0.0000 0.0000  plane waves:    2829
 k-point  2 :   0.1250 0.0000 0.0000  plane waves:    2860
 k-point  3 :   0.2500 0.0000 0.0000  plane waves:    2880
 k-point  4 :   0.3750 0.0000 0.0000  plane waves:    2879
 k-point  5 :   0.5000 0.0000 0.0000  plane waves:    2878
 k-point  6 :   0.1250 0.1250 0.0000  plane waves:    2859
 k-point  7 :   0.2500 0.1250 0.0000  plane waves:    2873
 k-point  8 :   0.3750 0.1250 0.0000  plane waves:    2880
 k-point  9 :   0.5000 0.1250 0.0000  plane waves:    2880
 k-point 10 :  -0.3750 0.1250 0.0000  plane waves:    2883
 k-point 11 :  -0.2500 0.1250 0.0000  plane waves:    2881
 k-point 12 :  -0.1250 0.1250 0.0000  plane waves:    2867
 k-point 13 :   0.2500 0.2500 0.0000  plane waves:    2879
 k-point 14 :   0.3750 0.2500 0.0000  plane waves:    2887
 k-point 15 :   0.5000 0.2500 0.0000  plane waves:    2895
 k-point 16 :  -0.3750 0.2500 0.0000  plane waves:    2884
 k-point 17 :  -0.2500 0.2500 0.0000  plane waves:    2895
 k-point 18 :   0.3750 0.3750 0.0000  plane waves:    2890
 k-point 19 :   0.5000 0.3750 0.0000  plane waves:    2891
 k-point 20 :  -0.3750 0.3750 0.0000  plane waves:    2885
 k-point 21 :   0.5000 0.5000 0.0000  plane waves:    2880
 k-point 22 :   0.1250 0.1250 0.1250  plane waves:    2838
 k-point 23 :   0.2500 0.1250 0.1250  plane waves:    2861
 k-point 24 :   0.3750 0.1250 0.1250  plane waves:    2879
 k-point 25 :   0.5000 0.1250 0.1250  plane waves:    2893
 k-point 26 :  -0.3750 0.1250 0.1250  plane waves:    2888
 k-point 27 :  -0.2500 0.1250 0.1250  plane waves:    2891
 k-point 28 :  -0.1250 0.1250 0.1250  plane waves:    2886
 k-point 29 :   0.2500 0.2500 0.1250  plane waves:    2862
 k-point 30 :   0.3750 0.2500 0.1250  plane waves:    2872
 k-point 31 :   0.5000 0.2500 0.1250  plane waves:    2886
 k-point 32 :  -0.3750 0.2500 0.1250  plane waves:    2886
 k-point 33 :  -0.2500 0.2500 0.1250  plane waves:    2884
 k-point 34 :  -0.1250 0.2500 0.1250  plane waves:    2882
 k-point 35 :   0.3750 0.3750 0.1250  plane waves:    2879
 k-point 36 :   0.5000 0.3750 0.1250  plane waves:    2891
 k-point 37 :  -0.3750 0.3750 0.1250  plane waves:    2899
 k-point 38 :  -0.2500 0.3750 0.1250  plane waves:    2891
 k-point 39 :  -0.1250 0.3750 0.1250  plane waves:    2887
 k-point 40 :   0.5000 0.5000 0.1250  plane waves:    2891
 k-point 41 :  -0.3750 0.5000 0.1250  plane waves:    2897
 k-point 42 :  -0.2500 0.5000 0.1250  plane waves:    2886
 k-point 43 :  -0.1250 0.5000 0.1250  plane waves:    2886
 k-point 44 :  -0.3750-0.3750 0.1250  plane waves:    2889
 k-point 45 :  -0.2500-0.3750 0.1250  plane waves:    2890
 k-point 46 :  -0.2500-0.2500 0.1250  plane waves:    2882
 k-point 47 :   0.2500 0.2500 0.2500  plane waves:    2844
 k-point 48 :   0.3750 0.2500 0.2500  plane waves:    2865
 k-point 49 :   0.5000 0.2500 0.2500  plane waves:    2873
 k-point 50 :  -0.3750 0.2500 0.2500  plane waves:    2901
 k-point 51 :  -0.2500 0.2500 0.2500  plane waves:    2901
 k-point 52 :   0.3750 0.3750 0.2500  plane waves:    2865
 k-point 53 :   0.5000 0.3750 0.2500  plane waves:    2870
 k-point 54 :  -0.3750 0.3750 0.2500  plane waves:    2895
 k-point 55 :  -0.2500 0.3750 0.2500  plane waves:    2887
 k-point 56 :   0.5000 0.5000 0.2500  plane waves:    2865
 k-point 57 :  -0.3750 0.5000 0.2500  plane waves:    2892
 k-point 58 :  -0.2500 0.5000 0.2500  plane waves:    2890
 k-point 59 :  -0.3750-0.3750 0.2500  plane waves:    2898
 k-point 60 :   0.3750 0.3750 0.3750  plane waves:    2853
 k-point 61 :   0.5000 0.3750 0.3750  plane waves:    2861
 k-point 62 :  -0.3750 0.3750 0.3750  plane waves:    2866
 k-point 63 :   0.5000 0.5000 0.3750  plane waves:    2861
 k-point 64 :  -0.3750 0.5000 0.3750  plane waves:    2876
 k-point 65 :   0.5000 0.5000 0.5000  plane waves:    2848

 maximum and minimum number of plane-waves per node :       197      163

 maximum number of plane-waves:      2901
 maximum index in each direction: 
   IXMAX=   17   IYMAX=   17   IZMAX=   16
   IXMIN=  -17   IYMIN=  -17   IZMIN=  -17

 WARNING: aliasing errors must be expected set NGX to  70 to avoid them
 WARNING: aliasing errors must be expected set NGY to  70 to avoid them
 WARNING: aliasing errors must be expected set NGZ to  68 to avoid them
 aliasing errors are usually negligible using standard VASP settings
 and one can safely disregard these warnings

 real space projection operators:
  total allocation   :       6856.15 KBytes
  max/ min on nodes  :        490.45        388.11


 parallel 3D FFT for wavefunctions:
    minimum data exchange during FFTs selected (reduces bandwidth)
 parallel 3D FFT for charge:
    minimum data exchange during FFTs selected (reduces bandwidth)


 total amount of memory used by VASP on root node    48070. kBytes
========================================================================

   base      :      30000. kBytes
   nonlr-proj:       1818. kBytes
   fftplans  :       3113. kBytes
   grid      :       5102. kBytes
   one-center:         15. kBytes
   wavefun   :       8022. kBytes
 
     INWAV:  cpu time    0.0000: real time    0.0001
 Broyden mixing: mesh for mixing (old mesh)
   NGX = 33   NGY = 33   NGZ = 33
  (NGX  =108   NGY  =108   NGZ  =108)
  gives a total of  35937 points

 initial charge density was supplied:
 charge density of overlapping atoms calculated
 number of electron      60.0000000 magnetization 
 keeping initial charge density in first step


--------------------------------------------------------------------------------------------------------


 Maximum index for non-local projection operator          938
 Maximum index for augmentation-charges         3290 (set IRDMAX)


--------------------------------------------------------------------------------------------------------


 First call to EWALD:  gamma=   0.344
 Maximum number of real-space cells 4x 4x 4
 Maximum number of reciprocal cells 5x 5x 5

 FEWALD executed in parallel
    FEWALD:  cpu time    0.0020: real time    0.0021


----------------------------------------- Iteration    1(   1)  ---------------------------------------


    POTLOK:  cpu time    0.0536: real time    0.0536
    SETDIJ:  cpu time    0.0079: real time    0.0079
     EDDAV:  cpu time    7.0064: real time    7.0039
       DOS:  cpu time    0.0065: real time    0.0065
    --------------------------------------------
      LOOP:  cpu time    7.0767: real time    7.1390

 eigenvalue-minimisations  :  6332
 total energy-change (2. order) : 0.4881484E+03  (-0.3888398E+04)
 number of electron      60.0000000 magnetization 
 augmentation part       60.0000000 magnetization 

 Free energy of the ion-electron system (eV)
  ---------------------------------------------------
  alpha Z        PSCENC =       221.98377640
  Ewald energy   TEWEN  =     -5475.66168596
  -Hartree energ DENC   =     -3513.38378596
  -exchange      EXHF   =         0.00000000
  -V(xc)+E(xc)   XCENC  =       229.17315632
  PAW double counting   =      7404.97912102    -7555.84706289
  entropy T*S    EENTRO =         0.00057428
  eigenvalues    EBANDS =      -870.88327020
  atomic energy  EATOM  =     10047.78760332
  Solvation  Ediel_sol  =         0.00000000
  ---------------------------------------------------
  free energy    TOTEN  =       488.14842633 eV

  energy without entropy =      488.14785205  energy(sigma->0) =      488.14828276


--------------------------------------------------------------------------------------------------------




----------------------------------------- Iteration    1(   2)  ---------------------------------------


     EDDAV:  cpu time    6.9141: real time    6.9108
       DOS:  cpu time    0.0067: real time    0.0067
    --------------------------------------------
      LOOP:  cpu time    6.9213: real time    6.9751

 eigenvalue-minimisations  :  6274
 total energy-change (2. order) :-0.4789454E+03  (-0.4659114E+03)
 number of electron      60.0000000 magnetization 
 augmentation part       60.0000000 magnetization 

 Free energy of the ion-electron system (eV)
  ---------------------------------------------------
  alpha Z        PSCENC =       221.98377640
  Ewald energy   TEWEN  =     -5475.66168596
  -Hartree energ DENC   =     -3513.38378596
  -exchange      EXHF   =         0.00000000
  -V(xc)+E(xc)   XCENC  =       229.17315632
  PAW double counting   =      7404.97912102    -7555.84706289
  entropy T*S    EENTRO =         0.00122967
  eigenvalues    EBANDS =     -1349.82932979
  atomic energy  EATOM  =     10047.78760332
  Solvation  Ediel_sol  =         0.00000000
  ---------------------------------------------------
  free energy    TOTEN  =         9.20302213 eV

  energy without entropy =        9.20179246  energy(sigma->0) =        9.20271471


--------------------------------------------------------------------------------------------------------




----------------------------------------- Iteration    1(   3)  ---------------------------------------


     EDDAV:  cpu time    6.4737: real time    6.4704
       DOS:  cpu time    0.0054: real time    0.0054
    --------------------------------------------
      LOOP:  cpu time    6.4796: real time    6.5686

 eigenvalue-minimisations  :  5774
 total energy-change (2. order) :-0.2884122E+02  (-0.2825055E+02)
 number of electron      60.0000000 magnetization 
 augmentation part       60.0000000 magnetization 

 Free energy of the ion-electron system (eV)
  ---------------------------------------------------
  alpha Z        PSCENC =       221.98377640
  Ewald energy   TEWEN  =     -5475.66168596
  -Hartree energ DENC   =     -3513.38378596
  -exchange      EXHF   =         0.00000000
  -V(xc)+E(xc)   XCENC  =       229.17315632
  PAW double counting   =      7404.97912102    -7555.84706289
  entropy T*S    EENTRO =         0.00017340
  eigenvalues    EBANDS =     -1378.66949502
  atomic energy  EATOM  =     10047.78760332
  Solvation  Ediel_sol  =         0.00000000
  ---------------------------------------------------
  free energy    TOTEN  =       -19.63819937 eV

  energy without entropy =      -19.63837277  energy(sigma->0) =      -19.63824272


--------------------------------------------------------------------------------------------------------




----------------------------------------- Iteration    1(   4)  ---------------------------------------


     EDDAV:  cpu time    7.2201: real time    7.2167
       DOS:  cpu time    0.0064: real time    0.0064
    --------------------------------------------
      LOOP:  cpu time    7.2270: real time    7.3096

 eigenvalue-minimisations  :  6640
 total energy-change (2. order) :-0.9129600E+00  (-0.9122381E+00)
 number of electron      60.0000000 magnetization 
 augmentation part       60.0000000 magnetization 

 Free energy of the ion-electron system (eV)
  ---------------------------------------------------
  alpha Z        PSCENC =       221.98377640
  Ewald energy   TEWEN  =     -5475.66168596
  -Hartree energ DENC   =     -3513.38378596
  -exchange      EXHF   =         0.00000000
  -V(xc)+E(xc)   XCENC  =       229.17315632
  PAW double counting   =      7404.97912102    -7555.84706289
  entropy T*S    EENTRO =         0.00035026
  eigenvalues    EBANDS =     -1379.58263185
  atomic energy  EATOM  =     10047.78760332
  Solvation  Ediel_sol  =         0.00000000
  ---------------------------------------------------
  free energy    TOTEN  =       -20.55115935 eV

  energy without entropy =      -20.55150961  energy(sigma->0) =      -20.55124691


--------------------------------------------------------------------------------------------------------




----------------------------------------- Iteration    1(   5)  ---------------------------------------


     EDDAV:  cpu time    7.7642: real time    7.7611
       DOS:  cpu time    0.0064: real time    0.0064
    CHARGE:  cpu time    0.5240: real time    0.5237
    MIXING:  cpu time    0.0019: real time    0.0019
    --------------------------------------------
      LOOP:  cpu time    8.2970: real time    8.4100

 eigenvalue-minimisations  :  7254
 total energy-change (2. order) :-0.5504973E-01  (-0.5504556E-01)
 number of electron      60.0000028 magnetization 
 augmentation part       11.7620116 magnetization 

 Broyden mixing:
  rms(total) = 0.14140E+01    rms(broyden)= 0.14140E+01
  rms(prec ) = 0.15101E+01
  weight for this iteration     100.00

 Free energy of the ion-electron system (eV)
  ---------------------------------------------------
  alpha Z        PSCENC =       221.98377640
  Ewald energy   TEWEN  =     -5475.66168596
  -Hartree energ DENC   =     -3513.38378596
  -exchange      EXHF   =         0.00000000
  -V(xc)+E(xc)   XCENC  =       229.17315632
  PAW double counting   =      7404.97912102    -7555.84706289
  entropy T*S    EENTRO =         0.00033686
  eigenvalues    EBANDS =     -1379.63766818
  atomic energy  EATOM  =     10047.78760332
  Solvation  Ediel_sol  =         0.00000000
  ---------------------------------------------------
  free energy    TOTEN  =       -20.60620908 eV

  energy without entropy =      -20.60654593  energy(sigma->0) =      -20.60629329


--------------------------------------------------------------------------------------------------------




----------------------------------------- Iteration    1(   6)  ---------------------------------------


    POTLOK:  cpu time    0.0525: real time    0.0525
    SETDIJ:  cpu time    0.0058: real time    0.0058
     EDDAV:  cpu time    6.0483: real time    6.0453
       DOS:  cpu time    0.0064: real time    0.0064
    CHARGE:  cpu time    0.5282: real time    0.5279
    MIXING:  cpu time    0.0018: real time    0.0018
    --------------------------------------------
      LOOP:  cpu time    6.6436: real time    6.7590

 eigenvalue-minimisations  :  5282
 total energy-change (2. order) : 0.7600064E+00  (-0.1717400E+00)
 number of electron      60.0000028 magnetization 
 augmentation part       11.9009753 magnetization 

 Broyden mixing:
  rms(total) = 0.97437E+00    rms(broyden)= 0.97437E+00
  rms(prec ) = 0.98561E+00
  weight for this iteration     100.00

 eigenvalues of (default mixing * dielectric matrix)
  average eigenvalue GAMMA=   2.8222
  2.8222

 Free energy of the ion-electron system (eV)
  ---------------------------------------------------
  alpha Z        PSCENC =       221.98377640
  Ewald energy   TEWEN  =     -5475.66168596
  -Hartree energ DENC   =     -3493.31952867
  -exchange      EXHF   =         0.00000000
  -V(xc)+E(xc)   XCENC  =       229.31811163
  PAW double counting   =      7362.81861297    -7512.85532221
  entropy T*S    EENTRO =         0.00044164
  eigenvalues    EBANDS =     -1399.91821178
  atomic energy  EATOM  =     10047.78760332
  Solvation  Ediel_sol  =         0.00000000
  ---------------------------------------------------
  free energy    TOTEN  =       -19.84620267 eV

  energy without entropy =      -19.84664430  energy(sigma->0) =      -19.84631307


--------------------------------------------------------------------------------------------------------




----------------------------------------- Iteration    1(   7)  ---------------------------------------


    POTLOK:  cpu time    0.0519: real time    0.0524
    SETDIJ:  cpu time    0.0058: real time    0.0058
     EDDAV:  cpu time    6.0662: real time    6.0633
       DOS:  cpu time    0.0063: real time    0.0063
    CHARGE:  cpu time    0.5283: real time    0.5281
    MIXING:  cpu time    0.0018: real time    0.0018
    --------------------------------------------
      LOOP:  cpu time    6.6615: real time    6.7432

 eigenvalue-minimisations  :  5306
 total energy-change (2. order) :-0.7001917E-02  (-0.4961687E-01)
 number of electron      60.0000028 magnetization 
 augmentation part       11.9367686 magnetization 

 Broyden mixing:
  rms(total) = 0.27119E+00    rms(broyden)= 0.27119E+00
  rms(prec ) = 0.27888E+00
  weight for this iteration     100.00

 eigenvalues of (default mixing * dielectric matrix)
  average eigenvalue GAMMA=   1.8553
  1.1472  2.5633

 Free energy of the ion-electron system (eV)
  ---------------------------------------------------
  alpha Z        PSCENC =       221.98377640
  Ewald energy   TEWEN  =     -5475.66168596
  -Hartree energ DENC   =     -3490.54881008
  -exchange      EXHF   =         0.00000000
  -V(xc)+E(xc)   XCENC  =       229.57095271
  PAW double counting   =      7422.96681876    -7574.53513844
  entropy T*S    EENTRO =        -0.00003260
  eigenvalues    EBANDS =     -1401.41668870
  atomic energy  EATOM  =     10047.78760332
  Solvation  Ediel_sol  =         0.00000000
  ---------------------------------------------------
  free energy    TOTEN  =       -19.85320458 eV

  energy without entropy =      -19.85317198  energy(sigma->0) =      -19.85319643


--------------------------------------------------------------------------------------------------------




----------------------------------------- Iteration    1(   8)  ---------------------------------------


    POTLOK:  cpu time    0.0521: real time    0.0521
    SETDIJ:  cpu time    0.0058: real time    0.0058
     EDDAV:  cpu time    6.0778: real time    6.0754
       DOS:  cpu time    0.0067: real time    0.0067
    CHARGE:  cpu time    0.5315: real time    0.5313
    MIXING:  cpu time    0.0019: real time    0.0019
    --------------------------------------------
      LOOP:  cpu time    6.6764: real time    6.7570

 eigenvalue-minimisations  :  5312
 total energy-change (2. order) : 0.2386587E-02  (-0.6695526E-02)
 number of electron      60.0000028 magnetization 
 augmentation part       11.9224498 magnetization 

 Broyden mixing:
  rms(total) = 0.24805E-01    rms(broyden)= 0.24805E-01
  rms(prec ) = 0.37026E-01
  weight for this iteration     100.00

 eigenvalues of (default mixing * dielectric matrix)
  average eigenvalue GAMMA=   1.6171
  2.4907  0.9922  1.3684

 Free energy of the ion-electron system (eV)
  ---------------------------------------------------
  alpha Z        PSCENC =       221.98377640
  Ewald energy   TEWEN  =     -5475.66168596
  -Hartree energ DENC   =     -3491.89585263
  -exchange      EXHF   =         0.00000000
  -V(xc)+E(xc)   XCENC  =       229.66906780
  PAW double counting   =      7460.88496421    -7613.36601859
  entropy T*S    EENTRO =         0.00029956
  eigenvalues    EBANDS =     -1399.25297211
  atomic energy  EATOM  =     10047.78760332
  Solvation  Ediel_sol  =         0.00000000
  ---------------------------------------------------
  free energy    TOTEN  =       -19.85081799 eV

  energy without entropy =      -19.85111755  energy(sigma->0) =      -19.85089288


--------------------------------------------------------------------------------------------------------




----------------------------------------- Iteration    1(   9)  ---------------------------------------


    POTLOK:  cpu time    0.0525: real time    0.0525
    SETDIJ:  cpu time    0.0058: real time    0.0057
     EDDAV:  cpu time    6.8494: real time    6.8463
       DOS:  cpu time    0.0065: real time    0.0065
    CHARGE:  cpu time    0.5293: real time    0.5289
    MIXING:  cpu time    0.0022: real time    0.0022
    --------------------------------------------
      LOOP:  cpu time    7.4464: real time    7.5715

 eigenvalue-minimisations  :  6220
 total energy-change (2. order) : 0.1757028E-02  (-0.1096942E-02)
 number of electron      60.0000028 magnetization 
 augmentation part       11.9094689 magnetization 

 Broyden mixing:
  rms(total) = 0.92770E-02    rms(broyden)= 0.92767E-02
  rms(prec ) = 0.11984E-01
  weight for this iteration     100.00

 eigenvalues of (default mixing * dielectric matrix)
  average eigenvalue GAMMA=   1.5581
  2.4684  0.9963  1.3839  1.3839

 Free energy of the ion-electron system (eV)
  ---------------------------------------------------
  alpha Z        PSCENC =       221.98377640
  Ewald energy   TEWEN  =     -5475.66168596
  -Hartree energ DENC   =     -3492.25054778
  -exchange      EXHF   =         0.00000000
  -V(xc)+E(xc)   XCENC  =       229.66877830
  PAW double counting   =      7463.56253780    -7616.07069669
  entropy T*S    EENTRO =         0.00035354
  eigenvalues    EBANDS =     -1398.86917990
  atomic energy  EATOM  =     10047.78760332
  Solvation  Ediel_sol  =         0.00000000
  ---------------------------------------------------
  free energy    TOTEN  =       -19.84906097 eV

  energy without entropy =      -19.84941451  energy(sigma->0) =      -19.84914935


--------------------------------------------------------------------------------------------------------




----------------------------------------- Iteration    1(  10)  ---------------------------------------


    POTLOK:  cpu time    0.0523: real time    0.0523
    SETDIJ:  cpu time    0.0058: real time    0.0058
     EDDAV:  cpu time    6.3022: real time    6.2992
       DOS:  cpu time    0.0065: real time    0.0065
    CHARGE:  cpu time    0.5324: real time    0.5321
    MIXING:  cpu time    0.0021: real time    0.0021
    --------------------------------------------
      LOOP:  cpu time    6.9020: real time    6.9711

 eigenvalue-minimisations  :  5576
 total energy-change (2. order) :-0.2493527E-03  (-0.2258142E-03)
 number of electron      60.0000028 magnetization 
 augmentation part       11.9085861 magnetization 

 Broyden mixing:
  rms(total) = 0.42908E-02    rms(broyden)= 0.42908E-02
  rms(prec ) = 0.55949E-02
  weight for this iteration     100.00

 eigenvalues of (default mixing * dielectric matrix)
  average eigenvalue GAMMA=   1.6067
  2.6325  1.9753  1.0958  1.1650  1.1650

 Free energy of the ion-electron system (eV)
  ---------------------------------------------------
  alpha Z        PSCENC =       221.98377640
  Ewald energy   TEWEN  =     -5475.66168596
  -Hartree energ DENC   =     -3492.08028053
  -exchange      EXHF   =         0.00000000
  -V(xc)+E(xc)   XCENC  =       229.67585104
  PAW double counting   =      7460.93502881    -7613.37405989
  entropy T*S    EENTRO =         0.00033611
  eigenvalues    EBANDS =     -1399.11587963
  atomic energy  EATOM  =     10047.78760332
  Solvation  Ediel_sol  =         0.00000000
  ---------------------------------------------------
  free energy    TOTEN  =       -19.84931032 eV

  energy without entropy =      -19.84964643  energy(sigma->0) =      -19.84939435


--------------------------------------------------------------------------------------------------------




----------------------------------------- Iteration    1(  11)  ---------------------------------------


    POTLOK:  cpu time    0.0520: real time    0.0519
    SETDIJ:  cpu time    0.0057: real time    0.0057
     EDDAV:  cpu time    7.0706: real time    7.0669
       DOS:  cpu time    0.0065: real time    0.0065
    CHARGE:  cpu time    0.5260: real time    0.5258
    MIXING:  cpu time    0.0022: real time    0.0022
    --------------------------------------------
      LOOP:  cpu time    7.6635: real time    7.7390

 eigenvalue-minimisations  :  6456
 total energy-change (2. order) :-0.6717858E-04  (-0.2914241E-04)
 number of electron      60.0000028 magnetization 
 augmentation part       11.9073710 magnetization 

 Broyden mixing:
  rms(total) = 0.15380E-02    rms(broyden)= 0.15379E-02
  rms(prec ) = 0.18285E-02
  weight for this iteration     100.00

 eigenvalues of (default mixing * dielectric matrix)
  average eigenvalue GAMMA=   1.6370
  2.6989  2.4076  1.0031  1.0031  1.3545  1.3545

 Free energy of the ion-electron system (eV)
  ---------------------------------------------------
  alpha Z        PSCENC =       221.98377640
  Ewald energy   TEWEN  =     -5475.66168596
  -Hartree energ DENC   =     -3492.02963872
  -exchange      EXHF   =         0.00000000
  -V(xc)+E(xc)   XCENC  =       229.68327059
  PAW double counting   =      7460.19290937    -7612.60549315
  entropy T*S    EENTRO =         0.00033764
  eigenvalues    EBANDS =     -1399.20045698
  atomic energy  EATOM  =     10047.78760332
  Solvation  Ediel_sol  =         0.00000000
  ---------------------------------------------------
  free energy    TOTEN  =       -19.84937750 eV

  energy without entropy =      -19.84971514  energy(sigma->0) =      -19.84946191


--------------------------------------------------------------------------------------------------------




----------------------------------------- Iteration    1(  12)  ---------------------------------------


    POTLOK:  cpu time    0.0522: real time    0.0522
    SETDIJ:  cpu time    0.0057: real time    0.0057
     EDDAV:  cpu time    6.9974: real time    6.9964
       DOS:  cpu time    0.0066: real time    0.0066
    CHARGE:  cpu time    0.5290: real time    0.5286
    MIXING:  cpu time    0.0023: real time    0.0023
    --------------------------------------------
      LOOP:  cpu time    7.5939: real time    7.6721

 eigenvalue-minimisations  :  6366
 total energy-change (2. order) :-0.6940489E-05  (-0.3622752E-05)
 number of electron      60.0000028 magnetization 
 augmentation part       11.9068263 magnetization 

 Broyden mixing:
  rms(total) = 0.46307E-03    rms(broyden)= 0.46305E-03
  rms(prec ) = 0.59002E-03
  weight for this iteration     100.00

 eigenvalues of (default mixing * dielectric matrix)
  average eigenvalue GAMMA=   1.6298
  2.9564  2.5882  1.5502  1.2748  1.0558  1.0558  0.9272

 Free energy of the ion-electron system (eV)
  ---------------------------------------------------
  alpha Z        PSCENC =       221.98377640
  Ewald energy   TEWEN  =     -5475.66168596
  -Hartree energ DENC   =     -3492.13149280
  -exchange      EXHF   =         0.00000000
  -V(xc)+E(xc)   XCENC  =       229.68668227
  PAW double counting   =      7459.85096896    -7612.25298450
  entropy T*S    EENTRO =         0.00033911
  eigenvalues    EBANDS =     -1399.11259124
  atomic energy  EATOM  =     10047.78760332
  Solvation  Ediel_sol  =         0.00000000
  ---------------------------------------------------
  free energy    TOTEN  =       -19.84938444 eV

  energy without entropy =      -19.84972355  energy(sigma->0) =      -19.84946922


--------------------------------------------------------------------------------------------------------




----------------------------------------- Iteration    1(  13)  ---------------------------------------


    POTLOK:  cpu time    0.0520: real time    0.0520
    SETDIJ:  cpu time    0.0056: real time    0.0057
     EDDAV:  cpu time    6.8039: real time    6.8048
       DOS:  cpu time    0.0065: real time    0.0065
    --------------------------------------------
      LOOP:  cpu time    6.8686: real time    6.9819

 eigenvalue-minimisations  :  6146
 total energy-change (2. order) : 0.3137211E-06  (-0.2799562E-06)
 number of electron      60.0000028 magnetization 
 augmentation part       11.9068263 magnetization 

 Free energy of the ion-electron system (eV)
  ---------------------------------------------------
  alpha Z        PSCENC =       221.98377640
  Ewald energy   TEWEN  =     -5475.66168596
  -Hartree energ DENC   =     -3492.16499280
  -exchange      EXHF   =         0.00000000
  -V(xc)+E(xc)   XCENC  =       229.68780691
  PAW double counting   =      7459.72011748    -7612.11665536
  entropy T*S    EENTRO =         0.00033924
  eigenvalues    EBANDS =     -1399.08569335
  atomic energy  EATOM  =     10047.78760332
  Solvation  Ediel_sol  =         0.00000000
  ---------------------------------------------------
  free energy    TOTEN  =       -19.84938412 eV

  energy without entropy =      -19.84972336  energy(sigma->0) =      -19.84946893


--------------------------------------------------------------------------------------------------------




 average (electrostatic) potential at core
  the test charge radii are     1.0856  1.0808
  (the norm of the test charge is              1.0000)
       1-127.6490       2-127.6490       3 -52.6305       4 -52.6715       5 -52.6715
 
 
 
 E-fermi :   5.4541     XC(G=0):  -9.7239     alpha+bet :-10.6080


 k-point     1 :       0.0000    0.0000    0.0000
  band No.  band energies     occupation 
      1     -86.2036      2.00000
      2     -86.2036      2.00000
      3     -86.2035      2.00000
      4     -86.2035      2.00000
      5     -86.2034      2.00000
      6     -86.2030      2.00000
      7     -17.5738      2.00000
      8     -17.5738      2.00000
      9     -17.5709      2.00000
     10     -17.5709      2.00000
     11     -17.5572      2.00000
     12     -17.5539      2.00000
     13     -17.5448      2.00000
     14     -17.5448      2.00000
     15     -17.5403      2.00000
     16     -17.5403      2.00000
     17      -9.3085      2.00000
     18      -8.5777      2.00000
     19      -7.4785      2.00000
     20      -4.0111      2.00000
     21      -2.9519      2.00000
     22       3.3776      2.00000
     23       3.4159      2.00000
     24       3.5305      2.00000
     25       3.5305      2.00000
     26       3.6899      2.00000
     27       3.6899      2.00000
     28       4.2368      2.00000
     29       4.2368      2.00000
     30       5.4629      0.90624
     31       5.8579      0.00987
     32       7.0740      0.00000
     33       7.0740      0.00000
     34       7.7758      0.00000
     35       8.4025      0.00000
     36       8.4025      0.00000
     37      11.3945      0.00000
     38      12.5034      0.00000

 k-point     2 :       0.1250    0.0000    0.0000
  band No.  band energies     occupation 
      1     -86.2043      2.00000
      2     -86.2040      2.00000
      3     -86.2038      2.00000
      4     -86.2037      2.00000
      5     -86.2035      2.00000
      6     -86.2031      2.00000
      7     -17.5775      2.00000
      8     -17.5742      2.00000
      9     -17.5695      2.00000
     10     -17.5668      2.00000
     11     -17.5546      2.00000
     12     -17.5514      2.00000
     13     -17.5472      2.00000
     14     -17.5451      2.00000
     15     -17.5427      2.00000
     16     -17.5401      2.00000
     17      -9.1531      2.00000
     18      -8.4374      2.00000
     19      -7.3853      2.00000
     20      -4.0844      2.00000
     21      -3.1556      2.00000
     22       2.3435      2.00000
     23       2.5138      2.00000
     24       3.0627      2.00000
     25       3.1252      2.00000
     26       3.6527      2.00000
     27       4.1421      2.00000
     28       4.1666      2.00000
     29       4.5334      2.00000
     30       4.9169      1.99778
     31       6.7256      0.00000
     32       7.4033      0.00000
     33       7.5111      0.00000
     34       7.8032      0.00000
     35       8.4825      0.00000
     36       8.7985      0.00000
     37      11.0525      0.00000
     38      11.6603      0.00000

 k-point     3 :       0.2500    0.0000    0.0000
  band No.  band energies     occupation 
      1     -86.2045      2.00000
      2     -86.2044      2.00000
      3     -86.2044      2.00000
      4     -86.2039      2.00000
      5     -86.2035      2.00000
      6     -86.2032      2.00000
      7     -17.5877      2.00000
      8     -17.5825      2.00000
      9     -17.5613      2.00000
     10     -17.5585      2.00000
     11     -17.5557      2.00000
     12     -17.5498      2.00000
     13     -17.5448      2.00000
     14     -17.5427      2.00000
     15     -17.5404      2.00000
     16     -17.5381      2.00000
     17      -8.7000      2.00000
     18      -8.0447      2.00000
     19      -7.1536      2.00000
     20      -4.4088      2.00000
     21      -3.7206      2.00000
     22       1.0989      2.00000
     23       1.7820      2.00000
     24       2.2060      2.00000
     25       2.4919      2.00000
     26       3.0795      2.00000
     27       3.7630      2.00000
     28       4.2137      2.00000
     29       4.2208      2.00000
     30       5.0438      1.99019
     31       6.7814      0.00000
     32       7.7313      0.00000
     33       7.8697      0.00000
     34       8.5406      0.00000
     35       9.0161      0.00000
     36       9.8197      0.00000
     37      10.1492      0.00000
     38      11.8362      0.00000

 k-point     4 :       0.3750    0.0000    0.0000
  band No.  band energies     occupation 
      1     -86.2048      2.00000
      2     -86.2047      2.00000
      3     -86.2042      2.00000
      4     -86.2041      2.00000
      5     -86.2032      2.00000
      6     -86.2030      2.00000
      7     -17.5990      2.00000
      8     -17.5917      2.00000
      9     -17.5606      2.00000
     10     -17.5586      2.00000
     11     -17.5542      2.00000
     12     -17.5534      2.00000
     13     -17.5364      2.00000
     14     -17.5344      2.00000
     15     -17.5322      2.00000
     16     -17.5319      2.00000
     17      -8.0062      2.00000
     18      -7.5269      2.00000
     19      -6.9688      2.00000
     20      -5.0282      2.00000
     21      -4.4172      2.00000
     22       0.1298      2.00000
     23       1.5308      2.00000
     24       1.9759      2.00000
     25       2.0803      2.00000
     26       2.6264      2.00000
     27       2.8803      2.00000
     28       3.8089      2.00000
     29       4.1843      2.00000
     30       4.9090      1.99809
     31       6.5889      0.00000
     32       7.7719      0.00000
     33       8.2799      0.00000
     34       8.7525      0.00000
     35       9.5941      0.00000
     36       9.7250      0.00000
     37      10.3216      0.00000
     38      12.1535      0.00000

 k-point     5 :       0.5000    0.0000    0.0000
  band No.  band energies     occupation 
      1     -86.2046      2.00000
      2     -86.2046      2.00000
      3     -86.2043      2.00000
      4     -86.2041      2.00000
      5     -86.2032      2.00000
      6     -86.2032      2.00000
      7     -17.6038      2.00000
      8     -17.5956      2.00000
      9     -17.5626      2.00000
     10     -17.5587      2.00000
     11     -17.5563      2.00000
     12     -17.5524      2.00000
     13     -17.5326      2.00000
     14     -17.5301      2.00000
     15     -17.5284      2.00000
     16     -17.5281      2.00000
     17      -7.3128      2.00000
     18      -7.2340      2.00000
     19      -7.2223      2.00000
     20      -5.3377      2.00000
     21      -4.8342      2.00000
     22      -0.2259      2.00000
     23       1.7491      2.00000
     24       1.7737      2.00000
     25       1.9324      2.00000
     26       2.4645      2.00000
     27       2.5677      2.00000
     28       3.4412      2.00000
     29       4.1607      2.00000
     30       4.8731      1.99908
     31       6.4948      0.00000
     32       7.7005      0.00000
     33       8.6282      0.00000
     34       8.7320      0.00000
     35       9.4189      0.00000
     36       9.9841      0.00000
     37      10.1216      0.00000
     38      12.0176      0.00000

 k-point     6 :       0.1250    0.1250    0.0000
  band No.  band energies     occupation 
      1     -86.2044      2.00000
      2     -86.2040      2.00000
      3     -86.2040      2.00000
      4     -86.2036      2.00000
      5     -86.2034      2.00000
      6     -86.2031      2.00000
      7     -17.5775      2.00000
      8     -17.5742      2.00000
      9     -17.5696      2.00000
     10     -17.5666      2.00000
     11     -17.5546      2.00000
     12     -17.5514      2.00000
     13     -17.5471      2.00000
     14     -17.5451      2.00000
     15     -17.5428      2.00000
     16     -17.5400      2.00000
     17      -9.1498      2.00000
     18      -8.4470      2.00000
     19      -7.3757      2.00000
     20      -4.0957      2.00000
     21      -3.1490      2.00000
     22       2.3787      2.00000
     23       2.5585      2.00000
     24       3.0566      2.00000
     25       3.0914      2.00000
     26       3.6576      2.00000
     27       3.8565      2.00000
     28       4.1758      2.00000
     29       4.7558      1.99996
     30       5.0116      1.99173
     31       6.6492      0.00000
     32       7.2963      0.00000
     33       7.4294      0.00000
     34       7.8683      0.00000
     35       8.5815      0.00000
     36       8.8499      0.00000
     37      11.1468      0.00000
     38      11.5478      0.00000

 k-point     7 :       0.2500    0.1250    0.0000
  band No.  band energies     occupation 
      1     -86.2045      2.00000
      2     -86.2044      2.00000
      3     -86.2040      2.00000
      4     -86.2038      2.00000
      5     -86.2035      2.00000
      6     -86.2032      2.00000
      7     -17.5826      2.00000
      8     -17.5787      2.00000
      9     -17.5642      2.00000
     10     -17.5634      2.00000
     11     -17.5517      2.00000
     12     -17.5512      2.00000
     13     -17.5458      2.00000
     14     -17.5447      2.00000
     15     -17.5430      2.00000
     16     -17.5383      2.00000
     17      -8.8423      2.00000
     18      -8.1866      2.00000
     19      -7.2057      2.00000
     20      -4.2797      2.00000
     21      -3.5592      2.00000
     22       1.6130      2.00000
     23       1.8427      2.00000
     24       2.2368      2.00000
     25       2.8190      2.00000
     26       3.1194      2.00000
     27       3.3644      2.00000
     28       4.3319      2.00000
     29       4.8877      1.99875
     30       5.0561      1.99019
     31       6.8900      0.00000
     32       7.2632      0.00000
     33       7.7462      0.00000
     34       8.5298      0.00000
     35       9.1317      0.00000
     36       9.4490      0.00000
     37      10.8001      0.00000
     38      10.9162      0.00000

 k-point     8 :       0.3750    0.1250    0.0000
  band No.  band energies     occupation 
      1     -86.2048      2.00000
      2     -86.2045      2.00000
      3     -86.2042      2.00000
      4     -86.2041      2.00000
      5     -86.2033      2.00000
      6     -86.2031      2.00000
      7     -17.5912      2.00000
      8     -17.5855      2.00000
      9     -17.5620      2.00000
     10     -17.5583      2.00000
     11     -17.5558      2.00000
     12     -17.5511      2.00000
     13     -17.5440      2.00000
     14     -17.5406      2.00000
     15     -17.5351      2.00000
     16     -17.5315      2.00000
     17      -8.2625      2.00000
     18      -7.7204      2.00000
     19      -6.9750      2.00000
     20      -4.7413      2.00000
     21      -4.2476      2.00000
     22       0.6854      2.00000
     23       1.2366      2.00000
     24       1.7866      2.00000
     25       2.1312      2.00000
     26       2.5531      2.00000
     27       3.3301      2.00000
     28       4.1690      2.00000
     29       4.2339      2.00000
     30       4.8692      1.99916
     31       7.2845      0.00000
     32       7.6419      0.00000
     33       7.9708      0.00000
     34       8.8559      0.00000
     35       9.5154      0.00000
     36      10.1511      0.00000
     37      10.3621      0.00000
     38      11.5688      0.00000

 k-point     9 :       0.5000    0.1250    0.0000
  band No.  band energies     occupation 
      1     -86.2046      2.00000
      2     -86.2046      2.00000
      3     -86.2043      2.00000
      4     -86.2041      2.00000
      5     -86.2033      2.00000
      6     -86.2032      2.00000
      7     -17.5982      2.00000
      8     -17.5910      2.00000
      9     -17.5627      2.00000
     10     -17.5589      2.00000
     11     -17.5556      2.00000
     12     -17.5534      2.00000
     13     -17.5363      2.00000
     14     -17.5330      2.00000
     15     -17.5317      2.00000
     16     -17.5281      2.00000
     17      -7.5233      2.00000
     18      -7.2590      2.00000
     19      -6.9675      2.00000
     20      -5.2800      2.00000
     21      -4.8748      2.00000
     22      -0.0070      2.00000
     23       1.1932      2.00000
     24       1.4684      2.00000
     25       1.7425      2.00000
     26       2.7343      2.00000
     27       3.0990      2.00000
     28       3.5898      2.00000
     29       3.7530      2.00000
     30       4.6268      2.00000
     31       7.4086      0.00000
     32       7.8892      0.00000
     33       8.4198      0.00000
     34       9.1547      0.00000
     35       9.3140      0.00000
     36      10.1148      0.00000
     37      10.3675      0.00000
     38      11.6795      0.00000

 k-point    10 :      -0.3750    0.1250    0.0000
  band No.  band energies     occupation 
      1     -86.2047      2.00000
      2     -86.2046      2.00000
      3     -86.2043      2.00000
      4     -86.2041      2.00000
      5     -86.2034      2.00000
      6     -86.2032      2.00000
      7     -17.5982      2.00000
      8     -17.5911      2.00000
      9     -17.5628      2.00000
     10     -17.5589      2.00000
     11     -17.5556      2.00000
     12     -17.5534      2.00000
     13     -17.5364      2.00000
     14     -17.5330      2.00000
     15     -17.5317      2.00000
     16     -17.5281      2.00000
     17      -7.5422      2.00000
     18      -7.2193      2.00000
     19      -6.9850      2.00000
     20      -5.3029      2.00000
     21      -4.8540      2.00000
     22      -0.0519      2.00000
     23       1.2382      2.00000
     24       1.4785      2.00000
     25       1.9244      2.00000
     26       2.5343      2.00000
     27       3.0977      2.00000
     28       3.3834      2.00000
     29       3.9386      2.00000
     30       4.6306      2.00000
     31       7.3866      0.00000
     32       7.8246      0.00000
     33       8.7241      0.00000
     34       9.0735      0.00000
     35       9.4354      0.00000
     36       9.9947      0.00000
     37      10.1425      0.00000
     38      11.9191      0.00000

 k-point    11 :      -0.2500    0.1250    0.0000
  band No.  band energies     occupation 
      1     -86.2048      2.00000
      2     -86.2045      2.00000
      3     -86.2042      2.00000
      4     -86.2041      2.00000
      5     -86.2032      2.00000
      6     -86.2031      2.00000
      7     -17.5911      2.00000
      8     -17.5855      2.00000
      9     -17.5620      2.00000
     10     -17.5583      2.00000
     11     -17.5559      2.00000
     12     -17.5511      2.00000
     13     -17.5440      2.00000
     14     -17.5406      2.00000
     15     -17.5351      2.00000
     16     -17.5316      2.00000
     17      -8.2787      2.00000
     18      -7.6733      2.00000
     19      -7.0158      2.00000
     20      -4.7094      2.00000
     21      -4.2699      2.00000
     22       0.5936      2.00000
     23       1.3500      2.00000
     24       1.9903      2.00000
     25       2.1830      2.00000
     26       2.3256      2.00000
     27       3.1630      2.00000
     28       4.0492      2.00000
     29       4.4826      2.00000
     30       4.8484      1.99948
     31       7.2790      0.00000
     32       7.5155      0.00000
     33       8.1228      0.00000
     34       8.9359      0.00000
     35       9.6446      0.00000
     36      10.0277      0.00000
     37      10.1908      0.00000
     38      11.5482      0.00000

 k-point    12 :      -0.1250    0.1250    0.0000
  band No.  band energies     occupation 
      1     -86.2044      2.00000
      2     -86.2044      2.00000
      3     -86.2040      2.00000
      4     -86.2038      2.00000
      5     -86.2034      2.00000
[...]
     28       3.9751      2.00000
     29       4.4177      2.00000
     30       4.7783      1.99992
     31       7.3724      0.00000
     32       7.7270      0.00000
     33       8.1589      0.00000
     34       9.1639      0.00000
     35      10.2014      0.00000
     36      10.4981      0.00000
     37      11.2114      0.00000
     38      11.3141      0.00000

 k-point    59 :      -0.3750   -0.3750    0.2500
  band No.  band energies     occupation 
      1     -86.2050      2.00000
      2     -86.2047      2.00000
      3     -86.2043      2.00000
      4     -86.2041      2.00000
      5     -86.2038      2.00000
      6     -86.2033      2.00000
      7     -17.5991      2.00000
      8     -17.5919      2.00000
      9     -17.5606      2.00000
     10     -17.5588      2.00000
     11     -17.5546      2.00000
     12     -17.5534      2.00000
     13     -17.5367      2.00000
     14     -17.5345      2.00000
     15     -17.5321      2.00000
     16     -17.5320      2.00000
     17      -7.9514      2.00000
     18      -7.6317      2.00000
     19      -6.9240      2.00000
     20      -4.9472      2.00000
     21      -4.4980      2.00000
     22       0.2656      2.00000
     23       1.1428      2.00000
     24       2.0177      2.00000
     25       2.0315      2.00000
     26       2.7668      2.00000
     27       3.0701      2.00000
     28       4.0566      2.00000
     29       4.0671      2.00000
     30       4.7378      1.99997
     31       6.7851      0.00000
     32       7.7276      0.00000
     33       7.9371      0.00000
     34       8.6754      0.00000
     35       9.6011      0.00000
     36       9.6749      0.00000
     37      10.8146      0.00000
     38      11.8503      0.00000

 k-point    60 :       0.3750    0.3750    0.3750
  band No.  band energies     occupation 
      1     -86.2042      2.00000
      2     -86.2041      2.00000
      3     -86.2040      2.00000
      4     -86.2034      2.00000
      5     -86.2034      2.00000
      6     -86.2029      2.00000
      7     -17.5739      2.00000
      8     -17.5739      2.00000
      9     -17.5712      2.00000
     10     -17.5712      2.00000
     11     -17.5575      2.00000
     12     -17.5540      2.00000
     13     -17.5451      2.00000
     14     -17.5451      2.00000
     15     -17.5402      2.00000
     16     -17.5402      2.00000
     17      -9.2374      2.00000
     18      -8.7499      2.00000
     19      -7.3017      2.00000
     20      -4.3272      2.00000
     21      -2.6514      2.00000
     22       2.7905      2.00000
     23       3.4846      2.00000
     24       3.4846      2.00000
     25       3.8097      2.00000
     26       3.8097      2.00000
     27       4.0673      2.00000
     28       4.1377      2.00000
     29       4.1377      2.00000
     30       5.1647      2.03000
     31       6.0560      0.00057
     32       7.2444      0.00000
     33       7.2444      0.00000
     34       7.7907      0.00000
     35       8.2062      0.00000
     36       8.2062      0.00000
     37      11.3895      0.00000
     38      12.3114      0.00000

 k-point    61 :       0.5000    0.3750    0.3750
  band No.  band energies     occupation 
      1     -86.2041      2.00000
      2     -86.2040      2.00000
      3     -86.2040      2.00000
      4     -86.2037      2.00000
      5     -86.2036      2.00000
      6     -86.2031      2.00000
      7     -17.5775      2.00000
      8     -17.5740      2.00000
      9     -17.5696      2.00000
     10     -17.5668      2.00000
     11     -17.5548      2.00000
     12     -17.5515      2.00000
     13     -17.5471      2.00000
     14     -17.5451      2.00000
     15     -17.5427      2.00000
     16     -17.5400      2.00000
     17      -9.0753      2.00000
     18      -8.6210      2.00000
     19      -7.2046      2.00000
     20      -4.3706      2.00000
     21      -2.9159      2.00000
     22       2.2495      2.00000
     23       2.7092      2.00000
     24       3.1419      2.00000
     25       3.1968      2.00000
     26       3.4611      2.00000
     27       3.5622      2.00000
     28       4.3061      2.00000
     29       4.7675      1.99994
     30       5.1791      2.04244
     31       6.5285      0.00000
     32       7.2670      0.00000
     33       7.4381      0.00000
     34       8.0696      0.00000
     35       8.5152      0.00000
     36       8.8001      0.00000
     37      11.1033      0.00000
     38      11.7542      0.00000

 k-point    62 :      -0.3750    0.3750    0.3750
  band No.  band energies     occupation 
      1     -86.2044      2.00000
      2     -86.2042      2.00000
      3     -86.2040      2.00000
      4     -86.2037      2.00000
      5     -86.2036      2.00000
      6     -86.2032      2.00000
      7     -17.5875      2.00000
      8     -17.5824      2.00000
      9     -17.5611      2.00000
     10     -17.5581      2.00000
     11     -17.5556      2.00000
     12     -17.5497      2.00000
     13     -17.5450      2.00000
     14     -17.5425      2.00000
     15     -17.5405      2.00000
     16     -17.5380      2.00000
     17      -8.6240      2.00000
     18      -8.2176      2.00000
     19      -7.0079      2.00000
     20      -4.5279      2.00000
     21      -3.6602      2.00000
     22       0.9597      2.00000
     23       1.9164      2.00000
     24       2.5023      2.00000
     25       2.5665      2.00000
     26       3.0479      2.00000
     27       3.3878      2.00000
     28       4.0499      2.00000
     29       4.2577      2.00000
     30       5.1980      2.06026
     31       6.6726      0.00000
     32       7.6869      0.00000
     33       8.1040      0.00000
     34       8.5619      0.00000
     35       9.2508      0.00000
     36       9.5435      0.00000
     37      10.2474      0.00000
     38      11.9805      0.00000

 k-point    63 :       0.5000    0.5000    0.3750
  band No.  band energies     occupation 
      1     -86.2042      2.00000
      2     -86.2040      2.00000
      3     -86.2039      2.00000
      4     -86.2037      2.00000
      5     -86.2037      2.00000
      6     -86.2031      2.00000
      7     -17.5775      2.00000
      8     -17.5740      2.00000
      9     -17.5697      2.00000
     10     -17.5668      2.00000
     11     -17.5548      2.00000
     12     -17.5515      2.00000
     13     -17.5471      2.00000
     14     -17.5451      2.00000
     15     -17.5427      2.00000
     16     -17.5400      2.00000
     17      -9.0699      2.00000
     18      -8.6310      2.00000
     19      -7.1962      2.00000
     20      -4.3793      2.00000
     21      -2.9124      2.00000
     22       2.2737      2.00000
     23       2.8255      2.00000
     24       3.1318      2.00000
     25       3.1774      2.00000
     26       3.3318      2.00000
     27       3.4710      2.00000
     28       4.3148      2.00000
     29       4.8494      1.99946
     30       5.3035      2.06648
     31       6.4314      0.00000
     32       7.2035      0.00000
     33       7.3631      0.00000
     34       8.0887      0.00000
     35       8.6066      0.00000
     36       8.8571      0.00000
     37      11.1991      0.00000
     38      11.6106      0.00000

 k-point    64 :      -0.3750    0.5000    0.3750
  band No.  band energies     occupation 
      1     -86.2043      2.00000
      2     -86.2042      2.00000
      3     -86.2042      2.00000
      4     -86.2039      2.00000
      5     -86.2037      2.00000
      6     -86.2033      2.00000
      7     -17.5825      2.00000
      8     -17.5786      2.00000
      9     -17.5643      2.00000
     10     -17.5635      2.00000
     11     -17.5518      2.00000
     12     -17.5511      2.00000
     13     -17.5460      2.00000
     14     -17.5448      2.00000
     15     -17.5430      2.00000
     16     -17.5382      2.00000
     17      -8.7682      2.00000
     18      -8.3532      2.00000
     19      -7.0573      2.00000
     20      -4.4586      2.00000
     21      -3.4360      2.00000
     22       1.4196      2.00000
     23       1.8060      2.00000
     24       2.5516      2.00000
     25       3.0092      2.00000
     26       3.2900      2.00000
     27       3.5538      2.00000
     28       3.7360      2.00000
     29       4.6251      2.00000
     30       4.8809      1.99892
     31       7.2155      0.00000
     32       7.7115      0.00000
     33       7.8352      0.00000
     34       8.4635      0.00000
     35       9.0165      0.00000
     36       9.0801      0.00000
     37      10.9419      0.00000
     38      11.3640      0.00000

 k-point    65 :       0.5000    0.5000    0.5000
  band No.  band energies     occupation 
      1     -86.2041      2.00000
      2     -86.2041      2.00000
      3     -86.2039      2.00000
      4     -86.2034      2.00000
      5     -86.2034      2.00000
      6     -86.2029      2.00000
      7     -17.5738      2.00000
      8     -17.5738      2.00000
      9     -17.5712      2.00000
     10     -17.5712      2.00000
     11     -17.5575      2.00000
     12     -17.5540      2.00000
     13     -17.5450      2.00000
     14     -17.5450      2.00000
     15     -17.5402      2.00000
     16     -17.5402      2.00000
     17      -9.2212      2.00000
     18      -8.7809      2.00000
     19      -7.2730      2.00000
     20      -4.3729      2.00000
     21      -2.6089      2.00000
     22       2.7392      2.00000
     23       3.4791      2.00000
     24       3.4791      2.00000
     25       3.8336      2.00000
     26       3.8336      2.00000
     27       4.1150      2.00000
     28       4.1150      2.00000
     29       4.1374      2.00000
     30       5.1151      2.00043
     31       6.0805      0.00032
     32       7.2802      0.00000
     33       7.2802      0.00000
     34       7.7930      0.00000
     35       8.1660      0.00000
     36       8.1660      0.00000
     37      11.3804      0.00000
     38      12.2857      0.00000


--------------------------------------------------------------------------------------------------------


 soft charge-density along one line, spin component           1
         0         1         2         3         4         5         6         7         8         9
 total charge-density along one line
 
 pseudopotential strength for first ion, spin component:           1
-64.170  -0.000  -0.000  11.818  -0.000  -0.000  -0.010  -0.049
 -0.000 -64.171  -0.000  -0.000  11.818  -0.000  -0.002  -0.008
 -0.000  -0.000 -64.170  -0.000  -0.000  11.818   0.001  -0.002
 11.818  -0.000  -0.000   4.139  -0.000  -0.000   0.002   0.009
 -0.000  11.818  -0.000  -0.000   4.139  -0.000   0.000   0.001
 -0.000  -0.000  11.818  -0.000  -0.000   4.139   0.001   0.000
 -0.010  -0.002   0.001   0.002   0.000   0.001 -16.610   0.001
 -0.049  -0.008  -0.002   0.009   0.001   0.000   0.001 -16.607
  0.002  -0.067   0.004  -0.001   0.011  -0.001  -0.002  -0.001
 -0.002  -0.014  -0.051   0.000   0.002   0.009   0.005  -0.003
  0.013  -0.001  -0.011  -0.002   0.000   0.002   0.002   0.004
 -0.010  -0.002   0.001   0.002   0.000   0.000 -16.147   0.001
 -0.046  -0.008  -0.002   0.008   0.001   0.000   0.001 -16.145
  0.002  -0.064   0.004  -0.001   0.011  -0.001  -0.002  -0.001
 -0.002  -0.013  -0.048   0.000   0.002   0.009   0.005  -0.002
  0.013  -0.001  -0.010  -0.002   0.000   0.002   0.002   0.004
  0.005   0.039   0.008   0.001   0.007   0.001  -0.000  -0.000
 -0.007  -0.056  -0.012  -0.001  -0.010  -0.002   0.000   0.000
 total augmentation occupancy for first ion, spin component:           1
  2.000   0.000  -0.000   0.003   0.000   0.000   0.002   0.011  -0.001  -0.000   0.000  -0.002  -0.011   0.001   0.000  -0.000
  0.000   2.000   0.000   0.000   0.003   0.000  -0.000   0.001   0.010   0.001  -0.000   0.000  -0.001  -0.010  -0.001   0.000
 -0.000   0.000   2.000   0.000   0.000   0.003   0.003  -0.000  -0.002   0.010   0.002  -0.003   0.000   0.002  -0.010  -0.002
  0.003   0.000   0.000   0.786  -0.000  -0.000  -0.094  -0.449   0.087   0.098  -0.300   0.093   0.448  -0.086  -0.097   0.295
  0.000   0.003   0.000  -0.000   0.782  -0.001   0.098   0.054   0.046   0.092   0.053  -0.097  -0.053  -0.039  -0.089  -0.053
  0.000   0.000   0.003  -0.000  -0.001   0.785  -0.396   0.098   0.146  -0.342  -0.068   0.390  -0.097  -0.145   0.343   0.068
  0.002  -0.000   0.003  -0.094   0.098  -0.396   5.473   0.257  -0.893   1.924   0.821  -3.482  -0.254   0.888  -1.913  -0.817
  0.011   0.001  -0.000  -0.449   0.054   0.098   0.257   6.651  -0.407  -1.033   1.699  -0.254  -4.646   0.405   1.028  -1.692
 -0.001   0.010  -0.002   0.087   0.046   0.146  -0.893  -0.407   3.715  -0.686  -0.486   0.888   0.405  -1.725   0.682   0.484
 -0.000   0.001   0.010   0.098   0.092  -0.342   1.924  -1.033  -0.686   5.526   0.121  -1.913   1.028   0.682  -3.527  -0.119
  0.000  -0.000   0.002  -0.300   0.053  -0.068   0.821   1.699  -0.486   0.121   4.413  -0.817  -1.692   0.484  -0.119  -2.427
 -0.002   0.000  -0.003   0.093  -0.097   0.390  -3.482  -0.254   0.888  -1.913  -0.817   3.489   0.251  -0.883   1.902   0.812
 -0.011  -0.001   0.000   0.448  -0.053  -0.097  -0.254  -4.646   0.405   1.028  -1.692   0.251   4.640  -0.403  -1.022   1.684
  0.001  -0.010   0.002  -0.086  -0.039  -0.145   0.888   0.405  -1.725   0.682   0.484  -0.883  -0.403   1.734  -0.678  -0.481
  0.000  -0.001  -0.010  -0.097  -0.089   0.343  -1.913   1.028   0.682  -3.527  -0.119   1.902  -1.022  -0.678   3.526   0.117
 -0.000   0.000  -0.002   0.295  -0.053   0.068  -0.817  -1.692   0.484  -0.119  -2.427   0.812   1.684  -0.481   0.117   2.440
  0.000   0.000   0.000  -0.007  -0.055  -0.012   0.002   0.008   0.036   0.013   0.001  -0.002  -0.008  -0.037  -0.014  -0.001
 -0.000  -0.000  -0.000   0.004   0.031   0.007   0.000   0.000   0.002   0.001   0.000  -0.000  -0.000  -0.002  -0.001  -0.000


------------------------ aborting loop because EDIFF is reached ----------------------------------------


    CHARGE:  cpu time    0.5314: real time    0.5312
    FORLOC:  cpu time    0.0042: real time    0.0042
    FORNL :  cpu time    1.7667: real time    1.7659
    STRESS:  cpu time    5.2876: real time    5.2848
    FORCOR:  cpu time    0.0565: real time    0.0565
    FORHAR:  cpu time    0.0149: real time    0.0149
    MIXING:  cpu time    0.0026: real time    0.0026
    OFIELD:  cpu time    0.0000: real time    0.0000

  FORCE on cell =-STRESS in cart. coord.  units (eV):
  Direction    XX          YY          ZZ          XY          YZ          ZX
  --------------------------------------------------------------------------------------
  Alpha Z   221.98378   221.98378   221.98378
  Ewald   -1351.17653 -1308.07070 -2816.41649   -39.57755  -189.78482  -319.45299
  Hartree  1570.99981  1608.00444   313.14683   -33.97590  -162.92304  -274.23835
  E(xc)    -309.50359  -309.50269  -309.53446    -0.00083    -0.00400    -0.00673
  Local   -1907.10423 -1987.17361   814.60117    73.51606   352.52813   593.38885
  n-local   351.91761   352.50629   351.59773     0.04667    -0.72490     0.10684
  augment   506.17473   506.17245   506.24974     0.00200     0.00971     0.01635
  Kinetic   915.76011   927.93010   923.57695     1.80210    -1.28285     1.65760
  Fock        0.00000     0.00000     0.00000     0.00000     0.00000     0.00000
  -------------------------------------------------------------------------------------
  Total       5.44014     5.44661     5.22024    -0.00594    -0.02848    -0.04794
  in kB      63.57437    63.64996    61.00455    -0.06942    -0.33286    -0.56028
  external pressure =       62.74 kB  Pullay stress =        0.00 kB


 VOLUME and BASIS-vectors are now :
 -----------------------------------------------------------------------------
  energy-cutoff  :      441.00
  volume of cell :      137.10
      direct lattice vectors                 reciprocal lattice vectors
     3.966327000  0.000000000  9.096205000     0.252122430 -0.137299171  0.000000000
     1.896918000  3.483310000  9.096205000     0.000000000  0.287083263  0.000000000
     0.000000000  0.000000000  9.923341000    -0.231107377 -0.137299202  0.100772512

  length of vectors
     9.923340933  9.923340761  9.923341000     0.287083232  0.287083263  0.287083245


 FORCES acting on ions
    electron-ion (+dipol)            ewald-force                    non-local-force                 convergence-correction
 -----------------------------------------------------------------------------------------------
   -.108E+03 -.640E+02 -.516E+03   0.106E+03 0.630E+02 0.509E+03   0.158E+01 0.937E+00 0.756E+01   0.910E-03 0.541E-03 0.436E-02
   0.108E+03 0.640E+02 0.516E+03   -.106E+03 -.630E+02 -.509E+03   -.158E+01 -.937E+00 -.756E+01   -.910E-03 -.541E-03 -.436E-02
   0.284E-14 0.345E-14 0.140E-13   0.124E-13 -.533E-14 -.426E-13   -.165E-23 0.000E+00 -.662E-23   -.155E-12 -.917E-13 -.732E-12
   0.644E+02 0.383E+02 0.309E+03   -.651E+02 -.387E+02 -.312E+03   0.526E+00 0.312E+00 0.252E+01   0.336E-03 0.199E-03 0.161E-02
   -.644E+02 -.383E+02 -.309E+03   0.651E+02 0.387E+02 0.312E+03   -.526E+00 -.312E+00 -.252E+01   -.336E-03 -.199E-03 -.161E-02
 -----------------------------------------------------------------------------------------------
   0.404E-12 -.272E-11 0.191E-10   -.142E-13 0.711E-14 -.114E-12   0.000E+00 0.111E-15 0.888E-15   -.559E-12 -.351E-12 -.242E-11
 
 
 POSITION                                       TOTAL-FORCE (eV/Angst)
 -----------------------------------------------------------------------------------
      2.33612      1.38787     11.20230        -0.056443     -0.033532     -0.270658
      3.52712      2.09544     16.91345         0.056443      0.033532      0.270658
      0.00000      0.00000      0.00000        -0.000000      0.000000      0.000000
      1.26479      0.75140      6.06499        -0.170685     -0.101403     -0.818478
      4.59846      2.73191     22.05076         0.170685      0.101403      0.818478
 -----------------------------------------------------------------------------------
    total drift:                               -0.000000     -0.000000      0.000000


--------------------------------------------------------------------------------------------------------



  FREE ENERGIE OF THE ION-ELECTRON SYSTEM (eV)
  ---------------------------------------------------
  free  energy   TOTEN  =       -19.84938412 eV

  energy  without entropy=      -19.84972336  energy(sigma->0) =      -19.84946893
 


--------------------------------------------------------------------------------------------------------


    POTLOK:  cpu time    0.0583: real time    0.0583


--------------------------------------------------------------------------------------------------------


 writing wavefunctions
     LOOP+:  cpu time  101.6625: real time  104.5917
    4ORBIT:  cpu time    0.0000: real time    0.0000

 total amount of memory used by VASP on root node    48070. kBytes
========================================================================

   base      :      30000. kBytes
   nonlr-proj:       1818. kBytes
   fftplans  :       3113. kBytes
   grid      :       5102. kBytes
   one-center:         15. kBytes
   wavefun   :       8022. kBytes
 
  
  
 General timing and accounting informations for this job:
 ========================================================
  
                  Total CPU time used (sec):      104.826
                            User time (sec):      104.151
                          System time (sec):        0.674
                         Elapsed time (sec):      108.685
  
                   Maximum memory used (kb):       74744.
                   Average memory used (kb):           0.
  
                          Minor page faults:        37557
                          Major page faults:            0
                 Voluntary context switches:         5802
