 vasp.5.4.1 24Jun15 (build Jun 17 2016 15:57:28) complex                        
  
 executed on           IFC91_ompi date 2016.11.24  11:00:20
 running on   16 total cores
 distrk:  each k-point on   16 cores,    1 groups
 distr:  one band on NCORES_PER_BAND=  16 cores,    1 groups


--------------------------------------------------------------------------------------------------------


 INCAR:
 POTCAR:    PAW_PBE Bi_pv 29Jan08 GW ready        
 POTCAR:   PAW_PBE Se 06Sep2000                   

 ----------------------------------------------------------------------------- 
|                                                                             |
|           W    W    AA    RRRRR   N    N  II  N    N   GGGG   !!!           |
|           W    W   A  A   R    R  NN   N  II  NN   N  G    G  !!!           |
|           W    W  A    A  R    R  N N  N  II  N N  N  G       !!!           |
|           W WW W  AAAAAA  RRRRR   N  N N  II  N  N N  G  GGG   !            |
|           WW  WW  A    A  R   R   N   NN  II  N   NN  G    G                |
|           W    W  A    A  R    R  N    N  II  N    N   GGGG   !!!           |
|                                                                             |
|      For optimal performance we recommend to set                            |
|        NCORE= 4 - approx SQRT( number of cores)                             |
|      NCORE specifies how many cores store one orbital (NPAR=cpu/NCORE).     |
|      This setting can  greatly improve the performance of VASP for DFT.     |
|      The default, NPAR=number of cores might be grossly inefficient         |
|      on modern multi-core architectures or massively parallel machines.     |
|      Do your own testing !!!!                                               |
|      Unfortunately you need to use the default for GW and RPA calculations. |
|      (for HF NCORE is supported but not extensively tested yet)             |
|                                                                             |
 ----------------------------------------------------------------------------- 

 POTCAR:    PAW_PBE Bi_pv 29Jan08 GW ready        
   VRHFIN =Bi:                                                                  
   LEXCH  = PE                                                                  
   EATOM  =  4638.5322 eV,  340.9225 Ry                                         
                                                                                
   TITEL  = PAW_PBE Bi_pv 29Jan08 GW ready                                      
   LULTRA =        F    use ultrasoft PP ?                                      
   IUNSCR =        1    unscreen: 0-lin 1-nonlin 2-no                           
   RPACOR =    2.200    partial core radius                                     
   POMASS =  208.980; ZVAL   =   21.000    mass and valenz                      
   RCORE  =    2.500    outmost cutoff radius                                   
   RWIGS  =    3.090; RWIGS  =    1.635    wigner-seitz radius (au A)           
   ENMAX  =  309.187; ENMIN  =  231.890 eV                                      
   ICORE  =        3    local potential                                         
   LCOR   =        T    correct aug charges                                     
   LPAW   =        T    paw PP                                                  
   EAUG   =  442.899                                                            
   DEXC   =    0.000                                                            
   RMAX   =    2.622    core radius for proj-oper                               
   RAUG   =    1.300    factor for augmentation sphere                          
   RDEP   =    2.650    radius for radial grids                                 
   QCUT   =   -4.767; QGAM   =    9.534    optimization parameters              
                                                                                
   Description                                                                  
     l     E      TYP  RCUT    TYP  RCUT                                        
     1   -95.81     23  1.900                                                   
     1    -4.57     23  1.900                                                   
     2   -27.08     23  2.200                                                   
     2   -28.44     23  2.200                                                   
     0   -14.47     23  2.500                                                   
     0     6.80     23  2.500                                                   
     3    -1.36      7  2.200                                                   
  local pseudopotential read in
  partial core-charges read in
  atomic valenz-charges read in
  non local Contribution for L=           1  read in
    real space projection operators read in
  non local Contribution for L=           1  read in
    real space projection operators read in
  non local Contribution for L=           2  read in
    real space projection operators read in
  non local Contribution for L=           2  read in
    real space projection operators read in
  non local Contribution for L=           0  read in
    real space projection operators read in
  non local Contribution for L=           0  read in
    real space projection operators read in
    PAW grid and wavefunctions read in
 
   number of l-projection  operators is LMAX  =           6
   number of lm-projection operators is LMMAX =          18
 
 POTCAR:   PAW_PBE Se 06Sep2000                   
   VRHFIN =Se: s2p4                                                             
   LEXCH  = PE                                                                  
   EATOM  =   256.9644 eV,   18.8864 Ry                                         
                                                                                
   TITEL  = PAW_PBE Se 06Sep2000                                                
   LULTRA =        F    use ultrasoft PP ?                                      
   IUNSCR =        1    unscreen: 0-lin 1-nonlin 2-no                           
   RPACOR =    1.900    partial core radius                                     
   POMASS =   78.960; ZVAL   =    6.000    mass and valenz                      
   RCORE  =    2.100    outmost cutoff radius                                   
   RWIGS  =    2.200; RWIGS  =    1.164    wigner-seitz radius (au A)           
   ENMAX  =  211.534; ENMIN  =  158.651 eV                                      
   ICORE  =        3    local potential                                         
   LCOR   =        T    correct aug charges                                     
   LPAW   =        T    paw PP                                                  
   EAUG   =  446.842                                                            
   DEXC   =    -.031                                                            
   RMAX   =    3.170    core radius for proj-oper                               
   RAUG   =    1.300    factor for augmentation sphere                          
   RDEP   =    2.177    radius for radial grids                                 
   QCUT   =   -3.943; QGAM   =    7.886    optimization parameters              
                                                                                
   Description                                                                  
     l     E      TYP  RCUT    TYP  RCUT                                        
     0   .000     23  2.100                                                     
     0   .000     23  2.100                                                     
     1   .000     23  2.100                                                     
     1   .000     23  2.100                                                     
     2   .000     23  2.100                                                     
     3  -.100      7  2.100                                                     
  local pseudopotential read in
  partial core-charges read in
  atomic valenz-charges read in
  non local Contribution for L=           0  read in
    real space projection operators read in
  non local Contribution for L=           0  read in
    real space projection operators read in
  non local Contribution for L=           1  read in
    real space projection operators read in
  non local Contribution for L=           1  read in
    real space projection operators read in
  non local Contribution for L=           2  read in
    real space projection operators read in
    PAW grid and wavefunctions read in
 
   number of l-projection  operators is LMAX  =           5
   number of lm-projection operators is LMMAX =          13
 

 ----------------------------------------------------------------------------- 
|                                                                             |
|  ADVICE TO THIS USER RUNNING 'VASP/VAMP'   (HEAR YOUR MASTER'S VOICE ...):  |
|                                                                             |
|      You have a (more or less) 'small supercell' and for smaller cells      |
|      it is recommended  to use the reciprocal-space projection scheme!      |
|      The real space optimization is not  efficient for small cells and it   |
|      is also less accurate ...                                              |
|      Therefore set LREAL=.FALSE. in the  INCAR file                         |
|                                                                             |
 ----------------------------------------------------------------------------- 

 Optimization of the real space projectors (new method)

 maximal supplied QI-value         = 15.12
 optimisation between [QCUT,QGAM] = [ 10.73, 21.47] = [ 32.26,129.05] Ry 
 Optimized for a Real-space Cutoff    1.44 Angstroem

   l    n(q)    QCUT    max X(q) W(low)/X(q) W(high)/X(q)  e(spline) 
   1      9    10.734     2.850    0.13E-03    0.22E-03    0.28E-06
   1      9    10.734     6.992    0.16E-03    0.36E-03    0.33E-06
   2      8    10.734    50.816    0.52E-04    0.12E-03    0.13E-06
   2      8    10.734    51.435    0.54E-04    0.12E-03    0.13E-06
   0      9    10.734    20.448    0.23E-03    0.26E-04    0.20E-06
   0      9    10.734     8.797    0.34E-03    0.39E-04    0.29E-06
 Optimization of the real space projectors (new method)

 maximal supplied QI-value         = 17.95
 optimisation between [QCUT,QGAM] = [ 10.59, 21.36] = [ 31.42,127.80] Ry 
 Optimized for a Real-space Cutoff    1.28 Angstroem

   l    n(q)    QCUT    max X(q) W(low)/X(q) W(high)/X(q)  e(spline) 
   0      8    10.592     6.499    0.15E-04    0.12E-04    0.11E-07
   0      8    10.592    52.623    0.14E-03    0.24E-03    0.47E-07
   1      8    10.592     4.229    0.15E-04    0.48E-04    0.38E-07
   1      8    10.592    29.991    0.48E-03    0.71E-04    0.83E-07
   2      7    10.592     3.719    0.14E-03    0.26E-03    0.49E-07
  PAW_PBE Bi_pv 29Jan08 GW ready        :
 energy of atom  1       EATOM=-4638.5322
 kinetic energy error for atom=    0.0832 (will be added to EATOM!!)
 PAW_PBE Se 06Sep2000                   :
 energy of atom  2       EATOM= -256.9644
 kinetic energy error for atom=    0.0012 (will be added to EATOM!!)
 
 
 POSCAR: i2a=[Bi,Se] ; Bi2Se3.su.static.3        
  positions in direct lattice
  No initial velocities read in
 exchange correlation table for  LEXCH =        8
   RHO(1)=    0.500       N(1)  =     2000
   RHO(2)=  100.500       N(2)  =     4000
 


--------------------------------------------------------------------------------------------------------


 ion  position               nearest neighbor table
   1  0.398  0.398  0.398-   5 2.84   5 2.84   5 2.84   3 3.06   3 3.06   3 3.06
   2  0.602  0.602  0.602-   4 2.84   4 2.84   4 2.84   3 3.06   3 3.06   3 3.06
   3  0.000  0.000  0.000-   2 3.06   1 3.06   2 3.06   1 3.06   2 3.06   1 3.06
   4  0.216  0.216  0.216-   2 2.84   2 2.84   2 2.84
   5  0.784  0.784  0.784-   1 2.84   1 2.84   1 2.84
 
  LATTYP: Found a trigonal (rhomboedric) cell.
 ALAT       =    10.0944330000
 COS(alpha) =     0.9166474409
  
  Lattice vectors:
  
 A1 = (   4.0347120000,   0.0000000000,   9.2530360000)
 A2 = (   1.9296240000,   3.5433670000,   9.2530360000)
 A3 = (   0.0000000000,   0.0000000000,  10.0944330000)


Analysis of symmetry for initial positions (statically):
=====================================================================
 Subroutine PRICEL returns:
 Original cell was already a primitive cell.
 

 Routine SETGRP: Setting up the symmetry group for a 
 trigonal (rhombohedral) supercell.


 Subroutine GETGRP returns: Found 12 space group operations
 (whereof 12 operations were pure point group operations)
 out of a pool of 12 trial point group operations.


The static configuration has the point symmetry D_3d.


Analysis of symmetry for dynamics (positions and initial velocities):
=====================================================================
 Subroutine PRICEL returns:
 Original cell was already a primitive cell.
 

 Routine SETGRP: Setting up the symmetry group for a 
 trigonal (rhombohedral) supercell.


 Subroutine GETGRP returns: Found 12 space group operations
 (whereof 12 operations were pure point group operations)
 out of a pool of 12 trial point group operations.


The dynamic configuration has the point symmetry D_3d.
 
 
 KPOINTS: Automatic Mesh                          

Automatic generation of k-mesh.
Space group operators:
 irot       det(A)        alpha          n_x          n_y          n_z        tau_x        tau_y        tau_z
    1     1.000000     0.000001     1.000000     0.000000     0.000000     0.000000     0.000000     0.000000
    2    -1.000000     0.000001     1.000000     0.000000     0.000000     0.000000     0.000000     0.000000
    3     1.000000   179.999999     0.468184     0.859725    -0.204148     0.000000     0.000000     0.000000
    4    -1.000000   179.999999     0.468184     0.859725    -0.204148     0.000000     0.000000     0.000000
    5     1.000000   120.000000    -0.202663    -0.120400    -0.971819     0.000000     0.000000     0.000000
    6    -1.000000   120.000000    -0.202663    -0.120400    -0.971819     0.000000     0.000000     0.000000
    7     1.000000   180.000000     0.510756    -0.859725     0.000000     0.000000     0.000000     0.000000
    8    -1.000000   180.000000     0.510756    -0.859725     0.000000     0.000000     0.000000     0.000000
    9     1.000000   120.000000     0.202663     0.120400     0.971819     0.000000     0.000000     0.000000
   10    -1.000000   120.000000     0.202663     0.120400     0.971819     0.000000     0.000000     0.000000
   11     1.000000   179.999999     0.978940    -0.000000    -0.204148     0.000000     0.000000     0.000000
   12    -1.000000   179.999999     0.978940    -0.000000    -0.204148     0.000000     0.000000     0.000000
 
 Subroutine IBZKPT returns following result:
 ===========================================
 
 Found     65 irreducible k-points:
 
 Following reciprocal coordinates:
            Coordinates               Weight
  0.000000  0.000000  0.000000      1.000000
  0.125000  0.000000  0.000000      6.000000
  0.250000  0.000000  0.000000      6.000000
  0.375000  0.000000  0.000000      6.000000
  0.500000  0.000000  0.000000      3.000000
  0.125000  0.125000  0.000000      6.000000
  0.250000  0.125000  0.000000     12.000000
  0.375000  0.125000  0.000000     12.000000
  0.500000  0.125000  0.000000     12.000000
 -0.375000  0.125000  0.000000     12.000000
 -0.250000  0.125000  0.000000     12.000000
 -0.125000  0.125000  0.000000      6.000000
  0.250000  0.250000  0.000000      6.000000
  0.375000  0.250000  0.000000     12.000000
  0.500000  0.250000  0.000000     12.000000
 -0.375000  0.250000  0.000000     12.000000
 -0.250000  0.250000  0.000000      6.000000
  0.375000  0.375000  0.000000      6.000000
  0.500000  0.375000  0.000000     12.000000
 -0.375000  0.375000  0.000000      6.000000
  0.500000  0.500000  0.000000      3.000000
  0.125000  0.125000  0.125000      2.000000
  0.250000  0.125000  0.125000      6.000000
  0.375000  0.125000  0.125000      6.000000
  0.500000  0.125000  0.125000      6.000000
 -0.375000  0.125000  0.125000      6.000000
 -0.250000  0.125000  0.125000      6.000000
 -0.125000  0.125000  0.125000      6.000000
  0.250000  0.250000  0.125000      6.000000
  0.375000  0.250000  0.125000     12.000000
  0.500000  0.250000  0.125000     12.000000
 -0.375000  0.250000  0.125000     12.000000
 -0.250000  0.250000  0.125000     12.000000
 -0.125000  0.250000  0.125000     12.000000
  0.375000  0.375000  0.125000      6.000000
  0.500000  0.375000  0.125000     12.000000
 -0.375000  0.375000  0.125000     12.000000
 -0.250000  0.375000  0.125000     12.000000
 -0.125000  0.375000  0.125000     12.000000
  0.500000  0.500000  0.125000      6.000000
 -0.375000  0.500000  0.125000     12.000000
 -0.250000  0.500000  0.125000     12.000000
 -0.125000  0.500000  0.125000      6.000000
 -0.375000 -0.375000  0.125000      6.000000
 -0.250000 -0.375000  0.125000     12.000000
 -0.250000 -0.250000  0.125000      6.000000
  0.250000  0.250000  0.250000      2.000000
  0.375000  0.250000  0.250000      6.000000
  0.500000  0.250000  0.250000      6.000000
 -0.375000  0.250000  0.250000      6.000000
 -0.250000  0.250000  0.250000      6.000000
  0.375000  0.375000  0.250000      6.000000
  0.500000  0.375000  0.250000     12.000000
 -0.375000  0.375000  0.250000     12.000000
 -0.250000  0.375000  0.250000     12.000000
  0.500000  0.500000  0.250000      6.000000
 -0.375000  0.500000  0.250000     12.000000
 -0.250000  0.500000  0.250000      6.000000
 -0.375000 -0.375000  0.250000      6.000000
  0.375000  0.375000  0.375000      2.000000
  0.500000  0.375000  0.375000      6.000000
 -0.375000  0.375000  0.375000      6.000000
  0.500000  0.500000  0.375000      6.000000
 -0.375000  0.500000  0.375000      6.000000
  0.500000  0.500000  0.500000      1.000000
 
 Following cartesian coordinates:
            Coordinates               Weight
  0.000000  0.000000  0.000000      1.000000
  0.030981 -0.016872  0.000000      6.000000
  0.061962 -0.033743  0.000000      6.000000
  0.092943 -0.050615  0.000000      6.000000
  0.123925 -0.067486  0.000000      3.000000
  0.030981  0.018406  0.000000      6.000000
  0.061962  0.001534  0.000000     12.000000
  0.092943 -0.015337  0.000000     12.000000
  0.123925 -0.032209  0.000000     12.000000
 -0.092943  0.085892  0.000000     12.000000
 -0.061962  0.069020  0.000000     12.000000
 -0.030981  0.052149  0.000000      6.000000
  0.061962  0.036811  0.000000      6.000000
  0.092943  0.019940  0.000000     12.000000
  0.123925  0.003068  0.000000     12.000000
 -0.092943  0.121169  0.000000     12.000000
 -0.061962  0.104297  0.000000      6.000000
  0.092943  0.055217  0.000000      6.000000
  0.123925  0.038345  0.000000     12.000000
 -0.092943  0.156446  0.000000      6.000000
  0.123925  0.073623  0.000000      3.000000
  0.002582  0.001534  0.012383      2.000000
  0.033564 -0.015337  0.012383      6.000000
  0.064545 -0.032209  0.012383      6.000000
  0.095526 -0.049080  0.012383      6.000000
 -0.121342  0.069020  0.012383      6.000000
 -0.090361  0.052149  0.012383      6.000000
 -0.059380  0.035277  0.012383      6.000000
  0.033564  0.019940  0.012383      6.000000
  0.064545  0.003068  0.012383     12.000000
  0.095526 -0.013803  0.012383     12.000000
 -0.121342  0.104297  0.012383     12.000000
 -0.090361  0.087426  0.012383     12.000000
 -0.059380  0.070554  0.012383     12.000000
  0.064545  0.038345  0.012383      6.000000
  0.095526  0.021474  0.012383     12.000000
 -0.121342  0.139575  0.012383     12.000000
 -0.090361  0.122703  0.012383     12.000000
 -0.059380  0.105832  0.012383     12.000000
  0.095526  0.056751  0.012383      6.000000
 -0.121342  0.174852  0.012383     12.000000
 -0.090361  0.157980  0.012383     12.000000
 -0.059380  0.141109  0.012383      6.000000
 -0.121342 -0.072089  0.012383      6.000000
 -0.090361 -0.088960  0.012383     12.000000
 -0.090361 -0.053683  0.012383      6.000000
  0.005165  0.003068  0.024766      2.000000
  0.036146 -0.013803  0.024766      6.000000
  0.067127 -0.030675  0.024766      6.000000
 -0.149741  0.087426  0.024766      6.000000
 -0.118760  0.070554  0.024766      6.000000
  0.036146  0.021474  0.024766      6.000000
  0.067127  0.004602  0.024766     12.000000
 -0.149741  0.122703  0.024766     12.000000
 -0.118760  0.105832  0.024766     12.000000
  0.067127  0.039880  0.024766      6.000000
 -0.149741  0.157980  0.024766     12.000000
 -0.118760  0.141109  0.024766      6.000000
 -0.149741 -0.088960  0.024766      6.000000
  0.007747  0.004602  0.037149      2.000000
  0.038728 -0.012269  0.037149      6.000000
 -0.178140  0.105832  0.037149      6.000000
  0.038728  0.023008  0.037149      6.000000
 -0.178140  0.141109  0.037149      6.000000
  0.010329  0.006137  0.049532      1.000000
 


--------------------------------------------------------------------------------------------------------




 Dimension of arrays:
   k-points           NKPTS =     65   k-points in BZ     NKDIM =     65   number of bands    NBANDS=     38
   number of dos      NEDOS =    301   number of ions     NIONS =      5
   non local maximal  LDIM  =      6   non local SUM 2l+1 LMDIM =     18
   total plane-waves  NPLWV = 157464
   max r-space proj   IRMAX =  13603   max aug-charges    IRDMAX=  48414
   dimension x,y,z NGX =    54 NGY =   54 NGZ =   54
   dimension x,y,z NGXF=   108 NGYF=  108 NGZF=  108
   support grid    NGXF=   108 NGYF=  108 NGZF=  108
   ions per type =               2   3
 NGX,Y,Z   is equivalent  to a cutoff of   8.89,  8.89,  8.89 a.u.
 NGXF,Y,Z  is equivalent  to a cutoff of  17.79, 17.79, 17.79 a.u.


 I would recommend the setting:
   dimension x,y,z NGX =    52 NGY =   52 NGZ =   52
 SYSTEM =  obtained from ('Bi2Se3', 'static', 1) b 
 POSCAR =  i2a=[Bi,Se] ; Bi2Se3.su.static.3        

 Startparameter for this run:
   NWRITE =      2    write-flag & timer
   PREC   = normal    normal or accurate (medium, high low for compatibility)
   ISTART =      0    job   : 0-new  1-cont  2-samecut
   ICHARG =      2    charge: 1-file 2-atom 10-const
   ISPIN  =      1    spin polarized calculation?
   LNONCOLLINEAR =      F non collinear calculations
   LSORBIT =      F    spin-orbit coupling
   INIWAV =      1    electr: 0-lowe 1-rand  2-diag
   LASPH  =      F    aspherical Exc in radial PAW
   METAGGA=      F    non-selfconsistent MetaGGA calc.

 Electronic Relaxation 1
   ENCUT  =  441.0 eV  32.41 Ry    5.69 a.u.  17.28 17.28 17.28*2*pi/ulx,y,z
   ENINI  =  441.0     initial cutoff
   ENAUG  =  776.2 eV  augmentation charge cutoff
   NELM   =     50;   NELMIN=  4; NELMDL= -5     # of ELM steps 
   EDIFF  = 0.6E-05   stopping-criterion for ELM
   LREAL  =      T    real-space projection
   NLSPLINE    = F    spline interpolate recip. space projectors
   LCOMPAT=      F    compatible to vasp.4.4
   GGA_COMPAT  = T    GGA compatible to vasp.4.4-vasp.4.6
   LMAXPAW     = -100 max onsite density
   LMAXMIX     =    2 max onsite mixed and CHGCAR
   VOSKOWN=      0    Vosko Wilk Nusair interpolation
   ROPT   =   -0.00050  -0.00050
 Ionic relaxation
   EDIFFG = 0.0E+00   stopping-criterion for IOM
   NSW    =      0    number of steps for IOM
   NBLOCK =      1;   KBLOCK =      1    inner block; outer block 
   IBRION =     -1    ionic relax: 0-MD 1-quasi-New 2-CG
   NFREE  =      0    steps in history (QN), initial steepest desc. (CG)
   ISIF   =      2    stress and relaxation
   IWAVPR =     10    prediction:  0-non 1-charg 2-wave 3-comb
   ISYM   =      2    0-nonsym 1-usesym 2-fastsym
   LCORR  =      T    Harris-Foulkes like correction to forces

   POTIM  = 0.5000    time-step for ionic-motion
   TEIN   =    0.0    initial temperature
   TEBEG  =    0.0;   TEEND  =   0.0 temperature during run
   SMASS  =  -3.00    Nose mass-parameter (am)
   estimated Nose-frequenzy (Omega)   =  0.10E-29 period in steps =****** mass=  -0.233E-26a.u.
   SCALEE = 1.0000    scale energy and forces
   NPACO  =    256;   APACO  = 16.0  distance and # of slots for P.C.
   PSTRESS=    0.0 pullay stress

  Mass of Ions in am
   POMASS = 208.98 78.96
  Ionic Valenz
   ZVAL   =  21.00  6.00
  Atomic Wigner-Seitz radii
   RWIGS  =  -1.00 -1.00
  virtual crystal weights 
   VCA    =   1.00  1.00
   NELECT =      60.0000    total number of electrons
   NUPDOWN=      -1.0000    fix difference up-down

 DOS related values:
   EMIN   =  10.00;   EMAX   =-10.00  energy-range for DOS
   EFERMI =   0.00
   ISMEAR =     2;   SIGMA  =   0.20  broadening in eV -4-tet -1-fermi 0-gaus

 Electronic relaxation 2 (details)
   IALGO  =     38    algorithm
   LDIAG  =      T    sub-space diagonalisation (order eigenvalues)
   LSUBROT=      F    optimize rotation matrix (better conditioning)
   TURBO    =      0    0=normal 1=particle mesh
   IRESTART =      0    0=no restart 2=restart with 2 vectors
   NREBOOT  =      0    no. of reboots
   NMIN     =      0    reboot dimension
   EREF     =   0.00    reference energy to select bands
   IMIX   =      4    mixing-type and parameters
     AMIX     =   0.40;   BMIX     =  1.00
     AMIX_MAG =   1.60;   BMIX_MAG =  1.00
     AMIN     =   0.10
     WC   =   100.;   INIMIX=   1;  MIXPRE=   1;  MAXMIX=  40

 Intra band minimization:
   WEIMIN = 0.0000     energy-eigenvalue tresh-hold
   EBREAK =  0.00E+00  absolut break condition
   DEPER  =   0.30     relativ break condition  

   TIME   =   0.40     timestep for ELM

  volume/ion in A,a.u.               =      28.86       194.78
  Fermi-wavevector in a.u.,A,eV,Ry     =   1.221861  2.308982 20.312732  1.492944
  Thomas-Fermi vector in A             =   2.357028
 
 Write flags
   LWAVE  =      T    write WAVECAR
   LCHARG =      T    write CHGCAR
   LVTOT  =      F    write LOCPOT, total local potential
   LVHAR  =      F    write LOCPOT, Hartree potential only
   LELF   =      F    write electronic localiz. function (ELF)
   LORBIT =      0    0 simple, 1 ext, 2 COOP (PROOUT)


 Dipole corrections
   LMONO  =      F    monopole corrections only (constant potential shift)
   LDIPOL =      F    correct potential (dipole corrections)
   IDIPOL =      0    1-x, 2-y, 3-z, 4-all directions 
   EPSILON=  1.0000000 bulk dielectric constant

 Exchange correlation treatment:
   GGA     =    --    GGA type
   LEXCH   =     8    internal setting for exchange type
   VOSKOWN=      0    Vosko Wilk Nusair interpolation
   LHFCALC =     F    Hartree Fock is set to
   LHFONE  =     F    Hartree Fock one center treatment
   AEXX    =    0.0000 exact exchange contribution

 Linear response parameters
   LEPSILON=     F    determine dielectric tensor
   LRPA    =     F    only Hartree local field effects (RPA)
   LNABLA  =     F    use nabla operator in PAW spheres
   LVEL    =     F    velocity operator in full k-point grid
   LINTERFAST=   F  fast interpolation
   KINTER  =     0    interpolate to denser k-point grid
   CSHIFT  =0.1000    complex shift for real part using Kramers Kronig
   OMEGAMAX=  -1.0    maximum frequency
   DEG_THRESHOLD= 0.2000000E-02 threshold for treating states as degnerate
   RTIME   =    0.100 relaxation time in fs

 Orbital magnetization related:
   ORBITALMAG=     F  switch on orbital magnetization
   LCHIMAG   =     F  perturbation theory with respect to B field
   DQ        =  0.001000  dq finite difference perturbation B field



--------------------------------------------------------------------------------------------------------


 Static calculation
 charge density and potential will be updated during run
 non-spin polarized calculation
 Variant of blocked Davidson
 Davidson routine will perform the subspace rotation
 perform sub-space diagonalisation
    after iterative eigenvector-optimisation
 modified Broyden-mixing scheme, WC =      100.0
 initial mixing is a Kerker type mixing with AMIX =  0.4000 and BMIX =      1.0000
 Hartree-type preconditioning will be used
 using additional bands            8
 real space projection scheme for non local part
 use partial core corrections
 calculate Harris-corrections to forces 
   (improved forces if not selfconsistent)
 use gradient corrections 
 use of overlap-Matrix (Vanderbilt PP)
 Methfessel and Paxton  Order N= 2 SIGMA  =   0.20


--------------------------------------------------------------------------------------------------------


  energy-cutoff  :      441.00
  volume of cell :      144.31
      direct lattice vectors                 reciprocal lattice vectors
     4.034712000  0.000000000  9.253036000     0.247849165 -0.134972103  0.000000000
     1.929624000  3.543367000  9.253036000     0.000000000  0.282217450  0.000000000
     0.000000000  0.000000000 10.094433000    -0.227190298 -0.134972068  0.099064504

  length of vectors
    10.094432928 10.094432807 10.094433000     0.282217429  0.282217450  0.282217410


 
 k-points in units of 2pi/SCALE and weight: Automatic Mesh                          
   0.00000000  0.00000000  0.00000000       0.002
   0.03098115 -0.01687151  0.00000000       0.012
   0.06196229 -0.03374303  0.00000000       0.012
   0.09294344 -0.05061454  0.00000000       0.012
   0.12392458 -0.06748605  0.00000000       0.006
   0.03098115  0.01840567  0.00000000       0.012
   0.06196229  0.00153416  0.00000000       0.023
   0.09294344 -0.01533736  0.00000000       0.023
   0.12392458 -0.03220887  0.00000000       0.023
  -0.09294344  0.08589172  0.00000000       0.023
  -0.06196229  0.06902021  0.00000000       0.023
  -0.03098115  0.05214869  0.00000000       0.012
   0.06196229  0.03681134  0.00000000       0.012
   0.09294344  0.01993982  0.00000000       0.023
   0.12392458  0.00306831  0.00000000       0.023
  -0.09294344  0.12116890  0.00000000       0.023
  -0.06196229  0.10429739  0.00000000       0.012
   0.09294344  0.05521701  0.00000000       0.012
   0.12392458  0.03834549  0.00000000       0.023
  -0.09294344  0.15644608  0.00000000       0.012
   0.12392458  0.07362267  0.00000000       0.006
   0.00258236  0.00153416  0.01238306       0.004
   0.03356350 -0.01533735  0.01238306       0.012
   0.06454465 -0.03220887  0.01238306       0.012
   0.09552580 -0.04908038  0.01238306       0.012
  -0.12134222  0.06902021  0.01238306       0.012
  -0.09036108  0.05214870  0.01238306       0.012
  -0.05937993  0.03527719  0.01238306       0.012
   0.03356350  0.01993983  0.01238306       0.012
   0.06454465  0.00306832  0.01238306       0.023
   0.09552580 -0.01380320  0.01238306       0.023
  -0.12134222  0.10429739  0.01238306       0.023
  -0.09036108  0.08742588  0.01238306       0.023
  -0.05937993  0.07055437  0.01238306       0.023
   0.06454465  0.03834550  0.01238306       0.012
   0.09552580  0.02147398  0.01238306       0.023
  -0.12134222  0.13957457  0.01238306       0.023
  -0.09036108  0.12270306  0.01238306       0.023
  -0.05937993  0.10583155  0.01238306       0.023
   0.09552580  0.05675116  0.01238306       0.012
  -0.12134222  0.17485176  0.01238306       0.023
  -0.09036108  0.15798024  0.01238306       0.023
  -0.05937993  0.14110873  0.01238306       0.012
  -0.12134222 -0.07208851  0.01238306       0.012
  -0.09036108 -0.08896003  0.01238306       0.023
  -0.09036108 -0.05368285  0.01238306       0.012
   0.00516472  0.00306832  0.02476613       0.004
   0.03614586 -0.01380319  0.02476613       0.012
   0.06712701 -0.03067471  0.02476613       0.012
  -0.14974101  0.08742588  0.02476613       0.012
  -0.11875987  0.07055437  0.02476613       0.012
   0.03614586  0.02147399  0.02476613       0.012
   0.06712701  0.00460248  0.02476613       0.023
  -0.14974101  0.12270307  0.02476613       0.023
  -0.11875987  0.10583155  0.02476613       0.023
   0.06712701  0.03987966  0.02476613       0.012
  -0.14974101  0.15798025  0.02476613       0.023
  -0.11875987  0.14110873  0.02476613       0.012
  -0.14974101 -0.08896002  0.02476613       0.012
   0.00774707  0.00460248  0.03714919       0.004
   0.03872822 -0.01226903  0.03714919       0.012
  -0.17813980  0.10583156  0.03714919       0.012
   0.03872822  0.02300815  0.03714919       0.012
  -0.17813980  0.14110874  0.03714919       0.012
   0.01032943  0.00613664  0.04953225       0.002
 
 k-points in reciprocal lattice and weights: Automatic Mesh                          
   0.00000000  0.00000000  0.00000000       0.002
   0.12500000  0.00000000  0.00000000       0.012
   0.25000000  0.00000000  0.00000000       0.012
   0.37500000  0.00000000  0.00000000       0.012
   0.50000000  0.00000000  0.00000000       0.006
   0.12500000  0.12500000  0.00000000       0.012
   0.25000000  0.12500000  0.00000000       0.023
   0.37500000  0.12500000  0.00000000       0.023
   0.50000000  0.12500000  0.00000000       0.023
  -0.37500000  0.12500000  0.00000000       0.023
  -0.25000000  0.12500000  0.00000000       0.023
  -0.12500000  0.12500000  0.00000000       0.012
   0.25000000  0.25000000  0.00000000       0.012
   0.37500000  0.25000000  0.00000000       0.023
   0.50000000  0.25000000  0.00000000       0.023
  -0.37500000  0.25000000  0.00000000       0.023
  -0.25000000  0.25000000  0.00000000       0.012
   0.37500000  0.37500000  0.00000000       0.012
   0.50000000  0.37500000  0.00000000       0.023
  -0.37500000  0.37500000  0.00000000       0.012
   0.50000000  0.50000000  0.00000000       0.006
   0.12500000  0.12500000  0.12500000       0.004
   0.25000000  0.12500000  0.12500000       0.012
   0.37500000  0.12500000  0.12500000       0.012
   0.50000000  0.12500000  0.12500000       0.012
  -0.37500000  0.12500000  0.12500000       0.012
  -0.25000000  0.12500000  0.12500000       0.012
  -0.12500000  0.12500000  0.12500000       0.012
   0.25000000  0.25000000  0.12500000       0.012
   0.37500000  0.25000000  0.12500000       0.023
   0.50000000  0.25000000  0.12500000       0.023
  -0.37500000  0.25000000  0.12500000       0.023
  -0.25000000  0.25000000  0.12500000       0.023
  -0.12500000  0.25000000  0.12500000       0.023
   0.37500000  0.37500000  0.12500000       0.012
   0.50000000  0.37500000  0.12500000       0.023
  -0.37500000  0.37500000  0.12500000       0.023
  -0.25000000  0.37500000  0.12500000       0.023
  -0.12500000  0.37500000  0.12500000       0.023
   0.50000000  0.50000000  0.12500000       0.012
  -0.37500000  0.50000000  0.12500000       0.023
  -0.25000000  0.50000000  0.12500000       0.023
  -0.12500000  0.50000000  0.12500000       0.012
  -0.37500000 -0.37500000  0.12500000       0.012
  -0.25000000 -0.37500000  0.12500000       0.023
  -0.25000000 -0.25000000  0.12500000       0.012
   0.25000000  0.25000000  0.25000000       0.004
   0.37500000  0.25000000  0.25000000       0.012
   0.50000000  0.25000000  0.25000000       0.012
  -0.37500000  0.25000000  0.25000000       0.012
  -0.25000000  0.25000000  0.25000000       0.012
   0.37500000  0.37500000  0.25000000       0.012
   0.50000000  0.37500000  0.25000000       0.023
  -0.37500000  0.37500000  0.25000000       0.023
  -0.25000000  0.37500000  0.25000000       0.023
   0.50000000  0.50000000  0.25000000       0.012
  -0.37500000  0.50000000  0.25000000       0.023
  -0.25000000  0.50000000  0.25000000       0.012
  -0.37500000 -0.37500000  0.25000000       0.012
   0.37500000  0.37500000  0.37500000       0.004
   0.50000000  0.37500000  0.37500000       0.012
  -0.37500000  0.37500000  0.37500000       0.012
   0.50000000  0.50000000  0.37500000       0.012
  -0.37500000  0.50000000  0.37500000       0.012
   0.50000000  0.50000000  0.50000000       0.002
 
 position of ions in fractional coordinates (direct lattice) 
   0.39843500  0.39843500  0.39843500
   0.60156500  0.60156500  0.60156500
   0.00000000  0.00000000  0.00000000
   0.21571500  0.21571500  0.21571500
   0.78428500  0.78428500  0.78428500
 
 position of ions in cartesian coordinates  (Angst):
   2.37640021  1.41180143 11.39544221
   3.58793579  2.13156557 17.20506279
   0.00000000  0.00000000  0.00000000
   1.28659674  0.76435741  6.16955794
   4.67773926  2.77900959 22.43094706
 


--------------------------------------------------------------------------------------------------------


 k-point  1 :   0.0000 0.0000 0.0000  plane waves:    3027
 k-point  2 :   0.1250 0.0000 0.0000  plane waves:    3013
 k-point  3 :   0.2500 0.0000 0.0000  plane waves:    3023
 k-point  4 :   0.3750 0.0000 0.0000  plane waves:    3036
 k-point  5 :   0.5000 0.0000 0.0000  plane waves:    3036
 k-point  6 :   0.1250 0.1250 0.0000  plane waves:    3022
 k-point  7 :   0.2500 0.1250 0.0000  plane waves:    3032
 k-point  8 :   0.3750 0.1250 0.0000  plane waves:    3049
 k-point  9 :   0.5000 0.1250 0.0000  plane waves:    3033
 k-point 10 :  -0.3750 0.1250 0.0000  plane waves:    3039
 k-point 11 :  -0.2500 0.1250 0.0000  plane waves:    3043
 k-point 12 :  -0.1250 0.1250 0.0000  plane waves:    3035
 k-point 13 :   0.2500 0.2500 0.0000  plane waves:    3023
 k-point 14 :   0.3750 0.2500 0.0000  plane waves:    3041
 k-point 15 :   0.5000 0.2500 0.0000  plane waves:    3044
 k-point 16 :  -0.3750 0.2500 0.0000  plane waves:    3048
 k-point 17 :  -0.2500 0.2500 0.0000  plane waves:    3035
 k-point 18 :   0.3750 0.3750 0.0000  plane waves:    3046
 k-point 19 :   0.5000 0.3750 0.0000  plane waves:    3050
 k-point 20 :  -0.3750 0.3750 0.0000  plane waves:    3057
 k-point 21 :   0.5000 0.5000 0.0000  plane waves:    3052
 k-point 22 :   0.1250 0.1250 0.1250  plane waves:    3012
 k-point 23 :   0.2500 0.1250 0.1250  plane waves:    3000
 k-point 24 :   0.3750 0.1250 0.1250  plane waves:    3025
 k-point 25 :   0.5000 0.1250 0.1250  plane waves:    3036
 k-point 26 :  -0.3750 0.1250 0.1250  plane waves:    3032
 k-point 27 :  -0.2500 0.1250 0.1250  plane waves:    3039
 k-point 28 :  -0.1250 0.1250 0.1250  plane waves:    3023
 k-point 29 :   0.2500 0.2500 0.1250  plane waves:    3019
 k-point 30 :   0.3750 0.2500 0.1250  plane waves:    3023
 k-point 31 :   0.5000 0.2500 0.1250  plane waves:    3035
 k-point 32 :  -0.3750 0.2500 0.1250  plane waves:    3040
 k-point 33 :  -0.2500 0.2500 0.1250  plane waves:    3047
 k-point 34 :  -0.1250 0.2500 0.1250  plane waves:    3049
 k-point 35 :   0.3750 0.3750 0.1250  plane waves:    3037
 k-point 36 :   0.5000 0.3750 0.1250  plane waves:    3040
 k-point 37 :  -0.3750 0.3750 0.1250  plane waves:    3041
 k-point 38 :  -0.2500 0.3750 0.1250  plane waves:    3048
 k-point 39 :  -0.1250 0.3750 0.1250  plane waves:    3046
 k-point 40 :   0.5000 0.5000 0.1250  plane waves:    3036
 k-point 41 :  -0.3750 0.5000 0.1250  plane waves:    3040
 k-point 42 :  -0.2500 0.5000 0.1250  plane waves:    3049
 k-point 43 :  -0.1250 0.5000 0.1250  plane waves:    3048
 k-point 44 :  -0.3750-0.3750 0.1250  plane waves:    3046
 k-point 45 :  -0.2500-0.3750 0.1250  plane waves:    3044
 k-point 46 :  -0.2500-0.2500 0.1250  plane waves:    3041
 k-point 47 :   0.2500 0.2500 0.2500  plane waves:    3013
 k-point 48 :   0.3750 0.2500 0.2500  plane waves:    3011
 k-point 49 :   0.5000 0.2500 0.2500  plane waves:    3030
 k-point 50 :  -0.3750 0.2500 0.2500  plane waves:    3027
 k-point 51 :  -0.2500 0.2500 0.2500  plane waves:    3038
 k-point 52 :   0.3750 0.3750 0.2500  plane waves:    3007
 k-point 53 :   0.5000 0.3750 0.2500  plane waves:    3018
 k-point 54 :  -0.3750 0.3750 0.2500  plane waves:    3037
 k-point 55 :  -0.2500 0.3750 0.2500  plane waves:    3036
 k-point 56 :   0.5000 0.5000 0.2500  plane waves:    3035
 k-point 57 :  -0.3750 0.5000 0.2500  plane waves:    3035
 k-point 58 :  -0.2500 0.5000 0.2500  plane waves:    3052
 k-point 59 :  -0.3750-0.3750 0.2500  plane waves:    3032
 k-point 60 :   0.3750 0.3750 0.3750  plane waves:    3007
 k-point 61 :   0.5000 0.3750 0.3750  plane waves:    3014
 k-point 62 :  -0.3750 0.3750 0.3750  plane waves:    3028
 k-point 63 :   0.5000 0.5000 0.3750  plane waves:    3009
 k-point 64 :  -0.3750 0.5000 0.3750  plane waves:    3026
 k-point 65 :   0.5000 0.5000 0.5000  plane waves:    3004

 maximum and minimum number of plane-waves per node :       205      176

 maximum number of plane-waves:      3057
 maximum index in each direction: 
   IXMAX=   17   IYMAX=   17   IZMAX=   17
   IXMIN=  -17   IYMIN=  -17   IZMIN=  -17

 WARNING: aliasing errors must be expected set NGX to  70 to avoid them
 WARNING: aliasing errors must be expected set NGY to  70 to avoid them
 WARNING: aliasing errors must be expected set NGZ to  70 to avoid them
 aliasing errors are usually negligible using standard VASP settings
 and one can safely disregard these warnings

 real space projection operators:
  total allocation   :       6507.71 KBytes
  max/ min on nodes  :        466.32        367.77


 parallel 3D FFT for wavefunctions:
    minimum data exchange during FFTs selected (reduces bandwidth)
 parallel 3D FFT for charge:
    minimum data exchange during FFTs selected (reduces bandwidth)


 total amount of memory used by VASP on root node    48411. kBytes
========================================================================

   base      :      30000. kBytes
   nonlr-proj:       1724. kBytes
   fftplans  :       3113. kBytes
   grid      :       5102. kBytes
   one-center:         15. kBytes
   wavefun   :       8457. kBytes
 
     INWAV:  cpu time    0.0000: real time    0.0001
 Broyden mixing: mesh for mixing (old mesh)
   NGX = 35   NGY = 35   NGZ = 35
  (NGX  =108   NGY  =108   NGZ  =108)
  gives a total of  42875 points

 initial charge density was supplied:
 charge density of overlapping atoms calculated
 number of electron      60.0000000 magnetization 
 keeping initial charge density in first step


--------------------------------------------------------------------------------------------------------


 Maximum index for non-local projection operator          885
 Maximum index for augmentation-charges         3119 (set IRDMAX)


--------------------------------------------------------------------------------------------------------


 First call to EWALD:  gamma=   0.338
 Maximum number of real-space cells 4x 4x 4
 Maximum number of reciprocal cells 5x 5x 5

 FEWALD executed in parallel
    FEWALD:  cpu time    0.0019: real time    0.0021


----------------------------------------- Iteration    1(   1)  ---------------------------------------


    POTLOK:  cpu time    0.0549: real time    0.0549
    SETDIJ:  cpu time    0.0076: real time    0.0076
     EDDAV:  cpu time    6.9121: real time    6.9090
       DOS:  cpu time    0.0071: real time    0.0071
    --------------------------------------------
      LOOP:  cpu time    6.9839: real time    7.0373

 eigenvalue-minimisations  :  6308
 total energy-change (2. order) : 0.4806959E+03  (-0.3872950E+04)
 number of electron      60.0000000 magnetization 
 augmentation part       60.0000000 magnetization 

 Free energy of the ion-electron system (eV)
  ---------------------------------------------------
  alpha Z        PSCENC =       210.88669844
  Ewald energy   TEWEN  =     -5382.85389140
  -Hartree energ DENC   =     -3567.51832514
  -exchange      EXHF   =         0.00000000
  -V(xc)+E(xc)   XCENC  =       228.54626295
  PAW double counting   =      7404.97912102    -7555.84706289
  entropy T*S    EENTRO =         0.00116809
  eigenvalues    EBANDS =      -905.28564158
  atomic energy  EATOM  =     10047.78760332
  Solvation  Ediel_sol  =         0.00000000
  ---------------------------------------------------
  free energy    TOTEN  =       480.69593281 eV

  energy without entropy =      480.69476471  energy(sigma->0) =      480.69564078


--------------------------------------------------------------------------------------------------------




----------------------------------------- Iteration    1(   2)  ---------------------------------------


     EDDAV:  cpu time    6.8350: real time    6.8325
       DOS:  cpu time    0.0068: real time    0.0068
    --------------------------------------------
      LOOP:  cpu time    6.8428: real time    6.9392

 eigenvalue-minimisations  :  6246
 total energy-change (2. order) :-0.4718473E+03  (-0.4602985E+03)
 number of electron      60.0000000 magnetization 
 augmentation part       60.0000000 magnetization 

 Free energy of the ion-electron system (eV)
  ---------------------------------------------------
  alpha Z        PSCENC =       210.88669844
  Ewald energy   TEWEN  =     -5382.85389140
  -Hartree energ DENC   =     -3567.51832514
  -exchange      EXHF   =         0.00000000
  -V(xc)+E(xc)   XCENC  =       228.54626295
  PAW double counting   =      7404.97912102    -7555.84706289
  entropy T*S    EENTRO =         0.00007323
  eigenvalues    EBANDS =     -1377.13185146
  atomic energy  EATOM  =     10047.78760332
  Solvation  Ediel_sol  =         0.00000000
  ---------------------------------------------------
  free energy    TOTEN  =         8.84862807 eV

  energy without entropy =        8.84855484  energy(sigma->0) =        8.84860976


--------------------------------------------------------------------------------------------------------




----------------------------------------- Iteration    1(   3)  ---------------------------------------


     EDDAV:  cpu time    6.3169: real time    6.3141
       DOS:  cpu time    0.0057: real time    0.0057
    --------------------------------------------
      LOOP:  cpu time    6.3232: real time    6.4169

 eigenvalue-minimisations  :  5672
 total energy-change (2. order) :-0.2875622E+02  (-0.2820479E+02)
 number of electron      60.0000000 magnetization 
 augmentation part       60.0000000 magnetization 

 Free energy of the ion-electron system (eV)
  ---------------------------------------------------
  alpha Z        PSCENC =       210.88669844
  Ewald energy   TEWEN  =     -5382.85389140
  -Hartree energ DENC   =     -3567.51832514
  -exchange      EXHF   =         0.00000000
  -V(xc)+E(xc)   XCENC  =       228.54626295
  PAW double counting   =      7404.97912102    -7555.84706289
  entropy T*S    EENTRO =        -0.00000141
  eigenvalues    EBANDS =     -1405.88799514
  atomic energy  EATOM  =     10047.78760332
  Solvation  Ediel_sol  =         0.00000000
  ---------------------------------------------------
  free energy    TOTEN  =       -19.90759025 eV

  energy without entropy =      -19.90758884  energy(sigma->0) =      -19.90758990


--------------------------------------------------------------------------------------------------------




----------------------------------------- Iteration    1(   4)  ---------------------------------------


     EDDAV:  cpu time    7.0622: real time    7.0594
       DOS:  cpu time    0.0061: real time    0.0061
    --------------------------------------------
      LOOP:  cpu time    7.0694: real time    7.1507

 eigenvalue-minimisations  :  6522
 total energy-change (2. order) :-0.9280975E+00  (-0.9271573E+00)
 number of electron      60.0000000 magnetization 
 augmentation part       60.0000000 magnetization 

 Free energy of the ion-electron system (eV)
  ---------------------------------------------------
  alpha Z        PSCENC =       210.88669844
  Ewald energy   TEWEN  =     -5382.85389140
  -Hartree energ DENC   =     -3567.51832514
  -exchange      EXHF   =         0.00000000
  -V(xc)+E(xc)   XCENC  =       228.54626295
  PAW double counting   =      7404.97912102    -7555.84706289
  entropy T*S    EENTRO =         0.00005117
  eigenvalues    EBANDS =     -1406.81614523
  atomic energy  EATOM  =     10047.78760332
  Solvation  Ediel_sol  =         0.00000000
  ---------------------------------------------------
  free energy    TOTEN  =       -20.83568777 eV

  energy without entropy =      -20.83573894  energy(sigma->0) =      -20.83570056


--------------------------------------------------------------------------------------------------------




----------------------------------------- Iteration    1(   5)  ---------------------------------------


     EDDAV:  cpu time    7.8100: real time    7.8066
       DOS:  cpu time    0.0054: real time    0.0063
    CHARGE:  cpu time    0.5274: real time    0.5270
    MIXING:  cpu time    0.0018: real time    0.0018
    --------------------------------------------
      LOOP:  cpu time    8.3462: real time    8.4384

 eigenvalue-minimisations  :  7402
 total energy-change (2. order) :-0.6424040E-01  (-0.6423563E-01)
 number of electron      59.9999994 magnetization 
 augmentation part       11.7663542 magnetization 

 Broyden mixing:
  rms(total) = 0.12440E+01    rms(broyden)= 0.12439E+01
  rms(prec ) = 0.13606E+01
  weight for this iteration     100.00

 Free energy of the ion-electron system (eV)
  ---------------------------------------------------
  alpha Z        PSCENC =       210.88669844
  Ewald energy   TEWEN  =     -5382.85389140
  -Hartree energ DENC   =     -3567.51832514
  -exchange      EXHF   =         0.00000000
  -V(xc)+E(xc)   XCENC  =       228.54626295
  PAW double counting   =      7404.97912102    -7555.84706289
  entropy T*S    EENTRO =         0.00005636
  eigenvalues    EBANDS =     -1406.88039082
  atomic energy  EATOM  =     10047.78760332
  Solvation  Ediel_sol  =         0.00000000
  ---------------------------------------------------
  free energy    TOTEN  =       -20.89992817 eV

  energy without entropy =      -20.89998452  energy(sigma->0) =      -20.89994226


--------------------------------------------------------------------------------------------------------




----------------------------------------- Iteration    1(   6)  ---------------------------------------


    POTLOK:  cpu time    0.0535: real time    0.0535
    SETDIJ:  cpu time    0.0055: real time    0.0055
     EDDAV:  cpu time    6.0168: real time    6.0272
       DOS:  cpu time    0.0064: real time    0.0064
    CHARGE:  cpu time    0.5144: real time    0.5141
    MIXING:  cpu time    0.0018: real time    0.0018
    --------------------------------------------
      LOOP:  cpu time    6.5991: real time    6.7058

 eigenvalue-minimisations  :  5306
 total energy-change (2. order) : 0.8282050E+00  (-0.1978324E+00)
 number of electron      59.9999993 magnetization 
 augmentation part       11.9150275 magnetization 

 Broyden mixing:
  rms(total) = 0.86589E+00    rms(broyden)= 0.86589E+00
  rms(prec ) = 0.87818E+00
  weight for this iteration     100.00

 eigenvalues of (default mixing * dielectric matrix)
  average eigenvalue GAMMA=   2.6732
  2.6732

 Free energy of the ion-electron system (eV)
  ---------------------------------------------------
  alpha Z        PSCENC =       210.88669844
  Ewald energy   TEWEN  =     -5382.85389140
  -Hartree energ DENC   =     -3545.57371066
  -exchange      EXHF   =         0.00000000
  -V(xc)+E(xc)   XCENC  =       228.67839493
  PAW double counting   =      7340.82915877    -7490.58156794
  entropy T*S    EENTRO =         0.00022272
  eigenvalues    EBANDS =     -1429.24463139
  atomic energy  EATOM  =     10047.78760332
  Solvation  Ediel_sol  =         0.00000000
  ---------------------------------------------------
  free energy    TOTEN  =       -20.07172321 eV

  energy without entropy =      -20.07194593  energy(sigma->0) =      -20.07177889


--------------------------------------------------------------------------------------------------------




----------------------------------------- Iteration    1(   7)  ---------------------------------------


    POTLOK:  cpu time    0.0527: real time    0.0527
    SETDIJ:  cpu time    0.0055: real time    0.0055
     EDDAV:  cpu time    6.0374: real time    6.0354
       DOS:  cpu time    0.0064: real time    0.0064
    CHARGE:  cpu time    0.5132: real time    0.5129
    MIXING:  cpu time    0.0018: real time    0.0018
    --------------------------------------------
      LOOP:  cpu time    6.6186: real time    6.6922

 eigenvalue-minimisations  :  5354
 total energy-change (2. order) :-0.6120589E-02  (-0.4255894E-01)
 number of electron      59.9999993 magnetization 
 augmentation part       11.9393940 magnetization 

 Broyden mixing:
  rms(total) = 0.31365E+00    rms(broyden)= 0.31365E+00
  rms(prec ) = 0.31901E+00
  weight for this iteration     100.00

 eigenvalues of (default mixing * dielectric matrix)
  average eigenvalue GAMMA=   1.8389
  1.1119  2.5659

 Free energy of the ion-electron system (eV)
  ---------------------------------------------------
  alpha Z        PSCENC =       210.88669844
  Ewald energy   TEWEN  =     -5382.85389140
  -Hartree energ DENC   =     -3543.07092708
  -exchange      EXHF   =         0.00000000
  -V(xc)+E(xc)   XCENC  =       228.87506440
  PAW double counting   =      7379.14612407    -7530.17375057
  entropy T*S    EENTRO =        -0.00010685
  eigenvalues    EBANDS =     -1430.67465813
  atomic energy  EATOM  =     10047.78760332
  Solvation  Ediel_sol  =         0.00000000
  ---------------------------------------------------
  free energy    TOTEN  =       -20.07784380 eV

  energy without entropy =      -20.07773695  energy(sigma->0) =      -20.07781708


--------------------------------------------------------------------------------------------------------




----------------------------------------- Iteration    1(   8)  ---------------------------------------


    POTLOK:  cpu time    0.0526: real time    0.0528
    SETDIJ:  cpu time    0.0055: real time    0.0055
     EDDAV:  cpu time    6.1053: real time    6.1023
       DOS:  cpu time    0.0064: real time    0.0064
    CHARGE:  cpu time    0.5114: real time    0.5112
    MIXING:  cpu time    0.0020: real time    0.0020
    --------------------------------------------
      LOOP:  cpu time    6.6839: real time    6.7866

 eigenvalue-minimisations  :  5408
 total energy-change (2. order) :-0.3457171E-02  (-0.6139559E-02)
 number of electron      59.9999993 magnetization 
 augmentation part       11.9287734 magnetization 

 Broyden mixing:
  rms(total) = 0.23624E-01    rms(broyden)= 0.23624E-01
  rms(prec ) = 0.34570E-01
  weight for this iteration     100.00

 eigenvalues of (default mixing * dielectric matrix)
  average eigenvalue GAMMA=   1.5885
  2.4778  0.9791  1.3085

 Free energy of the ion-electron system (eV)
  ---------------------------------------------------
  alpha Z        PSCENC =       210.88669844
  Ewald energy   TEWEN  =     -5382.85389140
  -Hartree energ DENC   =     -3543.62854257
  -exchange      EXHF   =         0.00000000
  -V(xc)+E(xc)   XCENC  =       228.99343852
  PAW double counting   =      7414.15531434    -7566.20462828
  entropy T*S    EENTRO =         0.00001780
  eigenvalues    EBANDS =     -1429.21731114
  atomic energy  EATOM  =     10047.78760332
  Solvation  Ediel_sol  =         0.00000000
  ---------------------------------------------------
  free energy    TOTEN  =       -20.08130097 eV

  energy without entropy =      -20.08131876  energy(sigma->0) =      -20.08130542


--------------------------------------------------------------------------------------------------------




----------------------------------------- Iteration    1(   9)  ---------------------------------------


    POTLOK:  cpu time    0.0531: real time    0.0531
    SETDIJ:  cpu time    0.0055: real time    0.0055
     EDDAV:  cpu time    7.2078: real time    7.2047
       DOS:  cpu time    0.0062: real time    0.0062
    CHARGE:  cpu time    0.5120: real time    0.5118
    MIXING:  cpu time    0.0023: real time    0.0023
    --------------------------------------------
      LOOP:  cpu time    7.7877: real time    7.8966

 eigenvalue-minimisations  :  6682
 total energy-change (2. order) : 0.1486733E-02  (-0.7166835E-03)
 number of electron      59.9999993 magnetization 
 augmentation part       11.9182802 magnetization 

 Broyden mixing:
  rms(total) = 0.88672E-02    rms(broyden)= 0.88670E-02
  rms(prec ) = 0.11649E-01
  weight for this iteration     100.00

 eigenvalues of (default mixing * dielectric matrix)
  average eigenvalue GAMMA=   1.5429
  2.5125  1.0031  1.2876  1.3686

 Free energy of the ion-electron system (eV)
  ---------------------------------------------------
  alpha Z        PSCENC =       210.88669844
  Ewald energy   TEWEN  =     -5382.85389140
  -Hartree energ DENC   =     -3543.84886353
  -exchange      EXHF   =         0.00000000
  -V(xc)+E(xc)   XCENC  =       228.99022985
  PAW double counting   =      7417.71820650    -7569.79163538
  entropy T*S    EENTRO =         0.00008504
  eigenvalues    EBANDS =     -1428.96824707
  atomic energy  EATOM  =     10047.78760332
  Solvation  Ediel_sol  =         0.00000000
  ---------------------------------------------------
  free energy    TOTEN  =       -20.07981423 eV

  energy without entropy =      -20.07989928  energy(sigma->0) =      -20.07983549


--------------------------------------------------------------------------------------------------------




----------------------------------------- Iteration    1(  10)  ---------------------------------------


    POTLOK:  cpu time    0.0523: real time    0.0528
    SETDIJ:  cpu time    0.0055: real time    0.0055
     EDDAV:  cpu time    6.1231: real time    6.1229
       DOS:  cpu time    0.0063: real time    0.0062
    CHARGE:  cpu time    0.5124: real time    0.5120
    MIXING:  cpu time    0.0022: real time    0.0022
    --------------------------------------------
      LOOP:  cpu time    6.7029: real time    6.7917

 eigenvalue-minimisations  :  5432
 total energy-change (2. order) :-0.2604359E-03  (-0.1984892E-03)
 number of electron      59.9999993 magnetization 
 augmentation part       11.9165568 magnetization 

 Broyden mixing:
  rms(total) = 0.37103E-02    rms(broyden)= 0.37103E-02
  rms(prec ) = 0.52176E-02
  weight for this iteration     100.00

 eigenvalues of (default mixing * dielectric matrix)
  average eigenvalue GAMMA=   1.5708
  2.5834  1.9104  1.0179  1.0179  1.3243

 Free energy of the ion-electron system (eV)
  ---------------------------------------------------
  alpha Z        PSCENC =       210.88669844
  Ewald energy   TEWEN  =     -5382.85389140
  -Hartree energ DENC   =     -3543.78667281
  -exchange      EXHF   =         0.00000000
  -V(xc)+E(xc)   XCENC  =       228.99842417
  PAW double counting   =      7417.01221555    -7569.05497607
  entropy T*S    EENTRO =         0.00006606
  eigenvalues    EBANDS =     -1429.06954193
  atomic energy  EATOM  =     10047.78760332
  Solvation  Ediel_sol  =         0.00000000
  ---------------------------------------------------
  free energy    TOTEN  =       -20.08007467 eV

  energy without entropy =      -20.08014073  energy(sigma->0) =      -20.08009118


--------------------------------------------------------------------------------------------------------




----------------------------------------- Iteration    1(  11)  ---------------------------------------


    POTLOK:  cpu time    0.0525: real time    0.0525
    SETDIJ:  cpu time    0.0055: real time    0.0055
     EDDAV:  cpu time    6.5400: real time    6.5368
       DOS:  cpu time    0.0063: real time    0.0063
    CHARGE:  cpu time    0.5117: real time    0.5113
    MIXING:  cpu time    0.0023: real time    0.0023
    --------------------------------------------
      LOOP:  cpu time    7.1189: real time    7.2613

 eigenvalue-minimisations  :  5936
 total energy-change (2. order) :-0.5795225E-04  (-0.2401751E-04)
 number of electron      59.9999993 magnetization 
 augmentation part       11.9166378 magnetization 

 Broyden mixing:
  rms(total) = 0.12878E-02    rms(broyden)= 0.12878E-02
  rms(prec ) = 0.16747E-02
  weight for this iteration     100.00

 eigenvalues of (default mixing * dielectric matrix)
  average eigenvalue GAMMA=   1.5989
  2.6887  2.3671  0.9881  0.9881  1.2807  1.2807

 Free energy of the ion-electron system (eV)
  ---------------------------------------------------
  alpha Z        PSCENC =       210.88669844
  Ewald energy   TEWEN  =     -5382.85389140
  -Hartree energ DENC   =     -3543.67204477
  -exchange      EXHF   =         0.00000000
  -V(xc)+E(xc)   XCENC  =       229.00348444
  PAW double counting   =      7416.28699788    -7568.29890448
  entropy T*S    EENTRO =         0.00006563
  eigenvalues    EBANDS =     -1429.22014168
  atomic energy  EATOM  =     10047.78760332
  Solvation  Ediel_sol  =         0.00000000
  ---------------------------------------------------
  free energy    TOTEN  =       -20.08013262 eV

  energy without entropy =      -20.08019825  energy(sigma->0) =      -20.08014903


--------------------------------------------------------------------------------------------------------




----------------------------------------- Iteration    1(  12)  ---------------------------------------


    POTLOK:  cpu time    0.0526: real time    0.0526
    SETDIJ:  cpu time    0.0055: real time    0.0055
     EDDAV:  cpu time    7.3956: real time    7.3988
       DOS:  cpu time    0.0058: real time    0.0058
    CHARGE:  cpu time    0.5100: real time    0.5096
    MIXING:  cpu time    0.0024: real time    0.0024
    --------------------------------------------
      LOOP:  cpu time    7.9726: real time    8.0475

 eigenvalue-minimisations  :  6930
 total energy-change (2. order) :-0.1186886E-04  (-0.4342852E-05)
 number of electron      59.9999993 magnetization 
 augmentation part       11.9158695 magnetization 

 Broyden mixing:
  rms(total) = 0.49565E-03    rms(broyden)= 0.49563E-03
  rms(prec ) = 0.64443E-03
  weight for this iteration     100.00

 eigenvalues of (default mixing * dielectric matrix)
  average eigenvalue GAMMA=   1.6400
  2.9371  2.5819  1.6621  1.1496  1.1089  1.0203  1.0203

 Free energy of the ion-electron system (eV)
  ---------------------------------------------------
  alpha Z        PSCENC =       210.88669844
  Ewald energy   TEWEN  =     -5382.85389140
  -Hartree energ DENC   =     -3543.75491077
  -exchange      EXHF   =         0.00000000
  -V(xc)+E(xc)   XCENC  =       229.00646752
  PAW double counting   =      7416.48179590    -7568.49274086
  entropy T*S    EENTRO =         0.00006811
  eigenvalues    EBANDS =     -1429.14123475
  atomic energy  EATOM  =     10047.78760332
  Solvation  Ediel_sol  =         0.00000000
  ---------------------------------------------------
  free energy    TOTEN  =       -20.08014449 eV

  energy without entropy =      -20.08021260  energy(sigma->0) =      -20.08016152


--------------------------------------------------------------------------------------------------------




----------------------------------------- Iteration    1(  13)  ---------------------------------------


    POTLOK:  cpu time    0.0521: real time    0.0525
    SETDIJ:  cpu time    0.0055: real time    0.0055
     EDDAV:  cpu time    6.3244: real time    6.3213
       DOS:  cpu time    0.0059: real time    0.0059
    --------------------------------------------
      LOOP:  cpu time    6.3890: real time    6.4675

 eigenvalue-minimisations  :  5672
 total energy-change (2. order) :-0.1032586E-06  (-0.4128627E-06)
 number of electron      59.9999993 magnetization 
 augmentation part       11.9158695 magnetization 

 Free energy of the ion-electron system (eV)
  ---------------------------------------------------
  alpha Z        PSCENC =       210.88669844
  Ewald energy   TEWEN  =     -5382.85389140
  -Hartree energ DENC   =     -3543.79914324
  -exchange      EXHF   =         0.00000000
  -V(xc)+E(xc)   XCENC  =       229.00792753
  PAW double counting   =      7416.39663567    -7568.40528403
  entropy T*S    EENTRO =         0.00006854
  eigenvalues    EBANDS =     -1429.10075944
  atomic energy  EATOM  =     10047.78760332
  Solvation  Ediel_sol  =         0.00000000
  ---------------------------------------------------
  free energy    TOTEN  =       -20.08014459 eV

  energy without entropy =      -20.08021314  energy(sigma->0) =      -20.08016173


--------------------------------------------------------------------------------------------------------




 average (electrostatic) potential at core
  the test charge radii are     1.0856  1.0808
  (the norm of the test charge is              1.0000)
       1-128.2314       2-128.2314       3 -53.1080       4 -53.1805       5 -53.1805
 
 
 
 E-fermi :   4.8222     XC(G=0):  -9.4837     alpha+bet :-10.0777


 k-point     1 :       0.0000    0.0000    0.0000
  band No.  band energies     occupation 
      1     -86.7861      2.00000
      2     -86.7858      2.00000
      3     -86.7858      2.00000
      4     -86.7852      2.00000
      5     -86.7851      2.00000
      6     -86.7851      2.00000
      7     -18.1305      2.00000
      8     -18.1305      2.00000
      9     -18.1290      2.00000
     10     -18.1290      2.00000
     11     -18.1204      2.00000
     12     -18.1174      2.00000
     13     -18.1090      2.00000
     14     -18.1090      2.00000
     15     -18.1052      2.00000
     16     -18.1052      2.00000
     17      -9.4956      2.00000
     18      -8.8272      2.00000
     19      -7.8088      2.00000
     20      -4.5817      2.00000
     21      -3.6379      2.00000
     22       2.8553      2.00000
     23       2.9218      2.00000
     24       3.0758      2.00000
     25       3.0758      2.00000
     26       3.2112      2.00000
     27       3.2112      2.00000
     28       3.7406      2.00000
     29       3.7406      2.00000
     30       4.8222      0.99933
     31       5.2440      0.00946
     32       6.4708      0.00000
     33       6.4708      0.00000
     34       7.1214      0.00000
     35       7.7048      0.00000
     36       7.7048      0.00000
     37      10.8595      0.00000
     38      11.9192      0.00000

 k-point     2 :       0.1250    0.0000    0.0000
  band No.  band energies     occupation 
      1     -86.7858      2.00000
      2     -86.7855      2.00000
      3     -86.7854      2.00000
      4     -86.7853      2.00000
      5     -86.7852      2.00000
      6     -86.7851      2.00000
      7     -18.1329      2.00000
      8     -18.1305      2.00000
      9     -18.1268      2.00000
     10     -18.1249      2.00000
     11     -18.1179      2.00000
     12     -18.1152      2.00000
     13     -18.1109      2.00000
     14     -18.1094      2.00000
     15     -18.1075      2.00000
     16     -18.1052      2.00000
     17      -9.3506      2.00000
     18      -8.6981      2.00000
     19      -7.7278      2.00000
     20      -4.6563      2.00000
     21      -3.8273      2.00000
     22       1.9450      2.00000
     23       2.1210      2.00000
     24       2.6367      2.00000
     25       2.6819      2.00000
     26       3.1779      2.00000
     27       3.6085      2.00000
     28       3.6801      2.00000
     29       3.9699      2.00000
     30       4.3169      1.99617
     31       6.0863      0.00000
     32       6.7463      0.00000
     33       6.8670      0.00000
     34       7.1398      0.00000
     35       7.7821      0.00000
     36       8.0588      0.00000
     37      10.5447      0.00000
     38      11.1240      0.00000

 k-point     3 :       0.2500    0.0000    0.0000
  band No.  band energies     occupation 
      1     -86.7860      2.00000
      2     -86.7857      2.00000
      3     -86.7856      2.00000
      4     -86.7854      2.00000
      5     -86.7853      2.00000
      6     -86.7850      2.00000
      7     -18.1401      2.00000
      8     -18.1367      2.00000
      9     -18.1193      2.00000
     10     -18.1178      2.00000
     11     -18.1172      2.00000
     12     -18.1134      2.00000
     13     -18.1103      2.00000
     14     -18.1081      2.00000
     15     -18.1066      2.00000
     16     -18.1043      2.00000
     17      -8.9294      2.00000
     18      -8.3393      2.00000
     19      -7.5274      2.00000
     20      -4.9582      2.00000
     21      -4.3464      2.00000
     22       0.7874      2.00000
     23       1.4372      2.00000
     24       1.8316      2.00000
     25       2.1032      2.00000
     26       2.6465      2.00000
     27       3.2442      2.00000
     28       3.7070      2.00000
     29       3.7213      2.00000
     30       4.4209      1.99014
     31       6.1644      0.00000
     32       7.0377      0.00000
     33       7.2025      0.00000
     34       7.8203      0.00000
     35       8.2717      0.00000
     36       9.0711      0.00000
     37       9.6260      0.00000
     38      11.2786      0.00000

 k-point     4 :       0.3750    0.0000    0.0000
  band No.  band energies     occupation 
      1     -86.7862      2.00000
      2     -86.7860      2.00000
      3     -86.7855      2.00000
      4     -86.7855      2.00000
      5     -86.7854      2.00000
      6     -86.7852      2.00000
      7     -18.1488      2.00000
      8     -18.1435      2.00000
      9     -18.1221      2.00000
     10     -18.1175      2.00000
     11     -18.1171      2.00000
     12     -18.1131      2.00000
     13     -18.1033      2.00000
     14     -18.1015      2.00000
     15     -18.0998      2.00000
     16     -18.0998      2.00000
     17      -8.2901      2.00000
     18      -7.8745      2.00000
     19      -7.3686      2.00000
     20      -5.5079      2.00000
     21      -4.9799      2.00000
     22      -0.1235      2.00000
     23       1.1915      2.00000
     24       1.6006      2.00000
     25       1.7178      2.00000
     26       2.2217      2.00000
     27       2.4274      2.00000
     28       3.3346      2.00000
     29       3.6935      2.00000
     30       4.3010      1.99705
     31       5.9846      0.00000
     32       7.1269      0.00000
     33       7.5796      0.00000
     34       8.0826      0.00000
     35       8.9168      0.00000
     36       9.1361      0.00000
     37       9.5137      0.00000
     38      11.4946      0.00000

 k-point     5 :       0.5000    0.0000    0.0000
  band No.  band energies     occupation 
      1     -86.7861      2.00000
      2     -86.7861      2.00000
      3     -86.7856      2.00000
      4     -86.7855      2.00000
      5     -86.7853      2.00000
      6     -86.7853      2.00000
      7     -18.1524      2.00000
      8     -18.1465      2.00000
      9     -18.1237      2.00000
     10     -18.1185      2.00000
     11     -18.1177      2.00000
     12     -18.1125      2.00000
     13     -18.1005      2.00000
     14     -18.0978      2.00000
     15     -18.0968      2.00000
     16     -18.0968      2.00000
     17      -7.6600      2.00000
     18      -7.6138      2.00000
     19      -7.5969      2.00000
     20      -5.7879      2.00000
     21      -5.3500      2.00000
     22      -0.4565      2.00000
     23       1.3833      2.00000
     24       1.3928      2.00000
     25       1.5792      2.00000
     26       2.0696      2.00000
     27       2.1468      2.00000
     28       2.9936      2.00000
     29       3.6713      2.00000
     30       4.2749      1.99817
     31       5.8995      0.00000
     32       7.0660      0.00000
     33       7.9984      0.00000
     34       8.0015      0.00000
     35       8.9839      0.00000
     36       9.1555      0.00000
     37       9.3465      0.00000
     38      11.3264      0.00000

 k-point     6 :       0.1250    0.1250    0.0000
  band No.  band energies     occupation 
      1     -86.7858      2.00000
      2     -86.7857      2.00000
      3     -86.7854      2.00000
      4     -86.7853      2.00000
      5     -86.7853      2.00000
      6     -86.7852      2.00000
      7     -18.1329      2.00000
      8     -18.1306      2.00000
      9     -18.1268      2.00000
     10     -18.1250      2.00000
     11     -18.1179      2.00000
     12     -18.1152      2.00000
     13     -18.1109      2.00000
     14     -18.1094      2.00000
     15     -18.1076      2.00000
     16     -18.1054      2.00000
     17      -9.3475      2.00000
     18      -8.7068      2.00000
     19      -7.7194      2.00000
     20      -4.6657      2.00000
     21      -3.8218      2.00000
     22       1.9696      2.00000
     23       2.1684      2.00000
     24       2.6315      2.00000
     25       2.6496      2.00000
     26       3.1807      2.00000
     27       3.3458      2.00000
     28       3.6901      2.00000
     29       4.1778      1.99980
     30       4.4062      1.99033
     31       6.0039      0.00000
     32       6.6414      0.00000
     33       6.7926      0.00000
     34       7.2170      0.00000
     35       7.8703      0.00000
     36       8.1077      0.00000
     37      10.6300      0.00000
     38      11.0240      0.00000

 k-point     7 :       0.2500    0.1250    0.0000
  band No.  band energies     occupation 
      1     -86.7857      2.00000
      2     -86.7857      2.00000
      3     -86.7856      2.00000
      4     -86.7856      2.00000
      5     -86.7854      2.00000
      6     -86.7853      2.00000
      7     -18.1364      2.00000
      8     -18.1335      2.00000
      9     -18.1226      2.00000
     10     -18.1221      2.00000
     11     -18.1150      2.00000
     12     -18.1143      2.00000
     13     -18.1105      2.00000
     14     -18.1093      2.00000
     15     -18.1085      2.00000
     16     -18.1046      2.00000
     17      -9.0615      2.00000
     18      -8.4681      2.00000
     19      -7.5723      2.00000
     20      -4.8425      2.00000
     21      -4.1955      2.00000
     22       1.2680      2.00000
     23       1.4866      2.00000
     24       1.8700      2.00000
     25       2.3965      2.00000
     26       2.6850      2.00000
     27       2.9074      2.00000
     28       3.8200      2.00000
     29       4.2949      1.99735
     30       4.4433      1.99130
     31       6.2685      0.00000
     32       6.6005      0.00000
     33       7.0600      0.00000
     34       7.8328      0.00000
     35       8.3747      0.00000
     36       8.6718      0.00000
     37      10.3151      0.00000
     38      10.4145      0.00000

 k-point     8 :       0.3750    0.1250    0.0000
  band No.  band energies     occupation 
      1     -86.7861      2.00000
      2     -86.7859      2.00000
      3     -86.7858      2.00000
      4     -86.7856      2.00000
      5     -86.7856      2.00000
      6     -86.7855      2.00000
      7     -18.1426      2.00000
      8     -18.1387      2.00000
      9     -18.1202      2.00000
     10     -18.1188      2.00000
     11     -18.1170      2.00000
     12     -18.1147      2.00000
     13     -18.1095      2.00000
     14     -18.1066      2.00000
     15     -18.1021      2.00000
     16     -18.0996      2.00000
     17      -8.5252      2.00000
     18      -8.0457      2.00000
     19      -7.3740      2.00000
     20      -5.2593      2.00000
     21      -4.8209      2.00000
     22       0.4004      2.00000
     23       0.9193      2.00000
     24       1.4313      2.00000
     25       1.7645      2.00000
     26       2.1476      2.00000
     27       2.8790      2.00000
     28       3.6528      2.00000
     29       3.7274      2.00000
     30       4.2655      1.99848
     31       6.6220      0.00000
     32       6.9730      0.00000
     33       7.2876      0.00000
     34       8.1255      0.00000
     35       8.7673      0.00000
     36       9.4477      0.00000
     37       9.7607      0.00000
     38      11.0225      0.00000

 k-point     9 :       0.5000    0.1250    0.0000
  band No.  band energies     occupation 
      1     -86.7861      2.00000
      2     -86.7858      2.00000
      3     -86.7856      2.00000
      4     -86.7856      2.00000
      5     -86.7854      2.00000
      6     -86.7852      2.00000
      7     -18.1480      2.00000
      8     -18.1427      2.00000
      9     -18.1215      2.00000
     10     -18.1199      2.00000
     11     -18.1165      2.00000
     12     -18.1147      2.00000
     13     -18.1032      2.00000
     14     -18.1006      2.00000
     15     -18.0992      2.00000
     16     -18.0968      2.00000
     17      -7.8511      2.00000
     18      -7.6374      2.00000
     19      -7.3674      2.00000
     20      -5.7380      2.00000
     21      -5.3862      2.00000
     22      -0.2507      2.00000
     23       0.8781      2.00000
     24       1.1423      2.00000
     25       1.3763      2.00000
     26       2.3080      2.00000
     27       2.6426      2.00000
     28       3.1312      2.00000
     29       3.2960      2.00000
     30       4.0436      2.00000
     31       6.7463      0.00000
     32       7.2386      0.00000
     33       7.7136      0.00000
     34       8.4366      0.00000
     35       8.5996      0.00000
     36       9.5511      0.00000
     37       9.5913      0.00000
     38      11.0794      0.00000

 k-point    10 :      -0.3750    0.1250    0.0000
  band No.  band energies     occupation 
      1     -86.7862      2.00000
      2     -86.7858      2.00000
      3     -86.7857      2.00000
      4     -86.7857      2.00000
      5     -86.7855      2.00000
      6     -86.7853      2.00000
      7     -18.1480      2.00000
      8     -18.1426      2.00000
      9     -18.1216      2.00000
     10     -18.1200      2.00000
     11     -18.1166      2.00000
     12     -18.1148      2.00000
     13     -18.1032      2.00000
     14     -18.1006      2.00000
     15     -18.0992      2.00000
     16     -18.0968      2.00000
     17      -7.8693      2.00000
     18      -7.6017      2.00000
     19      -7.3824      2.00000
     20      -5.7564      2.00000
     21      -5.3695      2.00000
     22      -0.2916      2.00000
     23       0.9184      2.00000
     24       1.1536      2.00000
     25       1.5380      2.00000
     26       2.1259      2.00000
     27       2.6496      2.00000
     28       2.9475      2.00000
     29       3.4534      2.00000
     30       4.0490      2.00000
     31       6.7288      0.00000
     32       7.1742      0.00000
     33       7.9832      0.00000
     34       8.3575      0.00000
     35       8.7117      0.00000
     36       9.3492      0.00000
     37       9.4942      0.00000
     38      11.3005      0.00000

 k-point    11 :      -0.2500    0.1250    0.0000
  band No.  band energies     occupation 
      1     -86.7862      2.00000
      2     -86.7860      2.00000
      3     -86.7856      2.00000
      4     -86.7856      2.00000
      5     -86.7854      2.00000
      6     -86.7854      2.00000
      7     -18.1426      2.00000
      8     -18.1387      2.00000
      9     -18.1201      2.00000
     10     -18.1188      2.00000
     11     -18.1169      2.00000
     12     -18.1148      2.00000
     13     -18.1094      2.00000
     14     -18.1065      2.00000
     15     -18.1022      2.00000
     16     -18.0994      2.00000
     17      -8.5406      2.00000
     18      -8.0027      2.00000
     19      -7.4099      2.00000
     20      -5.2322      2.00000
     21      -4.8401      2.00000
     22       0.3150      2.00000
     23       1.0226      2.00000
     24       1.6194      2.00000
     25       1.8141      2.00000
     26       1.9384      2.00000
     27       2.7236      2.00000
     28       3.5549      2.00000
     29       3.9462      2.00000
     30       4.2468      1.99897
     31       6.6224      0.00000
     32       6.8461      0.00000
     33       7.4196      0.00000
     34       8.2036      0.00000
     35       8.8767      0.00000
     36       9.2889      0.00000
     37       9.6637      0.00000
     38      10.9987      0.00000

 k-point    12 :      -0.1250    0.1250    0.0000
  band No.  band energies     occupation 
      1     -86.7858      2.00000
      2     -86.7857      2.00000
      3     -86.7857      2.00000
      4     -86.7855      2.00000
      5     -86.7855      2.00000
[...]
     28       3.4880      2.00000
     29       3.8873      2.00000
     30       4.1802      1.99979
     31       6.7401      0.00000
     32       7.0867      0.00000
     33       7.4413      0.00000
     34       8.4146      0.00000
     35       9.3686      0.00000
     36       9.6460      0.00000
     37      10.6996      0.00000
     38      10.7877      0.00000

 k-point    59 :      -0.3750   -0.3750    0.2500
  band No.  band energies     occupation 
      1     -86.7862      2.00000
      2     -86.7859      2.00000
      3     -86.7855      2.00000
      4     -86.7854      2.00000
      5     -86.7853      2.00000
      6     -86.7852      2.00000
      7     -18.1486      2.00000
      8     -18.1435      2.00000
      9     -18.1221      2.00000
     10     -18.1175      2.00000
     11     -18.1170      2.00000
     12     -18.1131      2.00000
     13     -18.1033      2.00000
     14     -18.1014      2.00000
     15     -18.0999      2.00000
     16     -18.0999      2.00000
     17      -8.2405      2.00000
     18      -7.9655      2.00000
     19      -7.3317      2.00000
     20      -5.4415      2.00000
     21      -5.0451      2.00000
     22       0.0059      2.00000
     23       0.8324      2.00000
     24       1.6334      2.00000
     25       1.6586      2.00000
     26       2.3515      2.00000
     27       2.6164      2.00000
     28       3.5740      2.00000
     29       3.5791      2.00000
     30       4.1396      1.99993
     31       6.1602      0.00000
     32       7.0990      0.00000
     33       7.2691      0.00000
     34       8.0092      0.00000
     35       8.8147      0.00000
     36       9.2106      0.00000
     37       9.9184      0.00000
     38      11.2377      0.00000

 k-point    60 :       0.3750    0.3750    0.3750
  band No.  band energies     occupation 
      1     -86.7857      2.00000
      2     -86.7854      2.00000
      3     -86.7854      2.00000
      4     -86.7852      2.00000
      5     -86.7850      2.00000
      6     -86.7850      2.00000
      7     -18.1304      2.00000
      8     -18.1304      2.00000
      9     -18.1286      2.00000
     10     -18.1286      2.00000
     11     -18.1202      2.00000
     12     -18.1176      2.00000
     13     -18.1087      2.00000
     14     -18.1087      2.00000
     15     -18.1054      2.00000
     16     -18.1054      2.00000
     17      -9.4284      2.00000
     18      -8.9859      2.00000
     19      -7.6529      2.00000
     20      -4.8457      2.00000
     21      -3.4003      2.00000
     22       2.3884      2.00000
     23       3.0292      2.00000
     24       3.0292      2.00000
     25       3.3243      2.00000
     26       3.3243      2.00000
     27       3.4648      2.00000
     28       3.6514      2.00000
     29       3.6514      2.00000
     30       4.5298      2.02765
     31       5.4622      0.00022
     32       6.6262      0.00000
     33       6.6262      0.00000
     34       7.0992      0.00000
     35       7.5282      0.00000
     36       7.5282      0.00000
     37      10.8554      0.00000
     38      11.7693      0.00000

 k-point    61 :       0.5000    0.3750    0.3750
  band No.  band energies     occupation 
      1     -86.7857      2.00000
      2     -86.7856      2.00000
      3     -86.7854      2.00000
      4     -86.7853      2.00000
      5     -86.7852      2.00000
      6     -86.7851      2.00000
      7     -18.1330      2.00000
      8     -18.1306      2.00000
      9     -18.1268      2.00000
     10     -18.1247      2.00000
     11     -18.1178      2.00000
     12     -18.1154      2.00000
     13     -18.1110      2.00000
     14     -18.1092      2.00000
     15     -18.1075      2.00000
     16     -18.1053      2.00000
     17      -9.2771      2.00000
     18      -8.8673      2.00000
     19      -7.5689      2.00000
     20      -4.8946      2.00000
     21      -3.6345      2.00000
     22       1.8532      2.00000
     23       2.3168      2.00000
     24       2.7129      2.00000
     25       2.7424      2.00000
     26       3.0005      2.00000
     27       3.0948      2.00000
     28       3.8056      2.00000
     29       4.1756      1.99981
     30       4.5508      2.04577
     31       5.9094      0.00000
     32       6.5922      0.00000
     33       6.8025      0.00000
     34       7.3942      0.00000
     35       7.8107      0.00000
     36       8.0774      0.00000
     37      10.6094      0.00000
     38      11.2215      0.00000

 k-point    62 :      -0.3750    0.3750    0.3750
  band No.  band energies     occupation 
      1     -86.7860      2.00000
      2     -86.7858      2.00000
      3     -86.7855      2.00000
      4     -86.7854      2.00000
      5     -86.7853      2.00000
      6     -86.7853      2.00000
      7     -18.1402      2.00000
      8     -18.1367      2.00000
      9     -18.1194      2.00000
     10     -18.1181      2.00000
     11     -18.1174      2.00000
     12     -18.1134      2.00000
     13     -18.1100      2.00000
     14     -18.1081      2.00000
     15     -18.1065      2.00000
     16     -18.1044      2.00000
     17      -8.8578      2.00000
     18      -8.4975      2.00000
     19      -7.4007      2.00000
     20      -5.0586      2.00000
     21      -4.2925      2.00000
     22       0.6627      2.00000
     23       1.5522      2.00000
     24       2.1143      2.00000
     25       2.1517      2.00000
     26       2.6141      2.00000
     27       2.9166      2.00000
     28       3.5465      2.00000
     29       3.7644      2.00000
     30       4.5736      2.06751
     31       6.0215      0.00000
     32       7.0318      0.00000
     33       7.4117      0.00000
     34       7.8796      0.00000
     35       8.4823      0.00000
     36       8.7437      0.00000
     37       9.7852      0.00000
     38      11.3885      0.00000

 k-point    63 :       0.5000    0.5000    0.3750
  band No.  band energies     occupation 
      1     -86.7856      2.00000
      2     -86.7855      2.00000
      3     -86.7853      2.00000
      4     -86.7852      2.00000
      5     -86.7852      2.00000
      6     -86.7851      2.00000
      7     -18.1329      2.00000
      8     -18.1306      2.00000
      9     -18.1268      2.00000
     10     -18.1249      2.00000
     11     -18.1177      2.00000
     12     -18.1153      2.00000
     13     -18.1109      2.00000
     14     -18.1092      2.00000
     15     -18.1075      2.00000
     16     -18.1053      2.00000
     17      -9.2720      2.00000
     18      -8.8766      2.00000
     19      -7.5617      2.00000
     20      -4.9019      2.00000
     21      -3.6313      2.00000
     22       1.8722      2.00000
     23       2.4263      2.00000
     24       2.7042      2.00000
     25       2.7261      2.00000
     26       2.8768      2.00000
     27       3.0081      2.00000
     28       3.8147      2.00000
     29       4.2545      1.99878
     30       4.6699      2.06972
     31       5.8081      0.00000
     32       6.5335      0.00000
     33       6.7339      0.00000
     34       7.4235      0.00000
     35       7.8926      0.00000
     36       8.1303      0.00000
     37      10.6999      0.00000
     38      11.0858      0.00000

 k-point    64 :      -0.3750    0.5000    0.3750
  band No.  band energies     occupation 
      1     -86.7858      2.00000
      2     -86.7857      2.00000
      3     -86.7855      2.00000
      4     -86.7855      2.00000
      5     -86.7853      2.00000
      6     -86.7852      2.00000
      7     -18.1363      2.00000
      8     -18.1335      2.00000
      9     -18.1225      2.00000
     10     -18.1220      2.00000
     11     -18.1150      2.00000
     12     -18.1144      2.00000
     13     -18.1104      2.00000
     14     -18.1091      2.00000
     15     -18.1085      2.00000
     16     -18.1046      2.00000
     17      -8.9915      2.00000
     18      -8.6214      2.00000
     19      -7.4427      2.00000
     20      -4.9912      2.00000
     21      -4.0931      2.00000
     22       1.0857      2.00000
     23       1.4554      2.00000
     24       2.1617      2.00000
     25       2.5637      2.00000
     26       2.8382      2.00000
     27       3.1197      2.00000
     28       3.2526      2.00000
     29       4.0490      2.00000
     30       4.2858      1.99775
     31       6.5689      0.00000
     32       7.0053      0.00000
     33       7.1434      0.00000
     34       7.7563      0.00000
     35       8.2779      0.00000
     36       8.3481      0.00000
     37      10.4589      0.00000
     38      10.8231      0.00000

 k-point    65 :       0.5000    0.5000    0.5000
  band No.  band energies     occupation 
      1     -86.7853      2.00000
      2     -86.7853      2.00000
      3     -86.7853      2.00000
      4     -86.7853      2.00000
      5     -86.7851      2.00000
      6     -86.7851      2.00000
      7     -18.1305      2.00000
      8     -18.1305      2.00000
      9     -18.1286      2.00000
     10     -18.1286      2.00000
     11     -18.1201      2.00000
     12     -18.1175      2.00000
     13     -18.1087      2.00000
     14     -18.1086      2.00000
     15     -18.1054      2.00000
     16     -18.1054      2.00000
     17      -9.4129      2.00000
     18      -9.0148      2.00000
     19      -7.6276      2.00000
     20      -4.8843      2.00000
     21      -3.3667      2.00000
     22       2.3473      2.00000
     23       3.0238      2.00000
     24       3.0238      2.00000
     25       3.3457      2.00000
     26       3.3457      2.00000
     27       3.5256      2.00000
     28       3.6316      2.00000
     29       3.6316      2.00000
     30       4.4828      2.00028
     31       5.4901      0.00011
     32       6.6586      0.00000
     33       6.6586      0.00000
     34       7.0948      0.00000
     35       7.4923      0.00000
     36       7.4923      0.00000
     37      10.8470      0.00000
     38      11.7442      0.00000


--------------------------------------------------------------------------------------------------------


 soft charge-density along one line, spin component           1
         0         1         2         3         4         5         6         7         8         9
 total charge-density along one line
 
 pseudopotential strength for first ion, spin component:           1
-64.493  -0.000  -0.000  11.929  -0.000  -0.000  -0.009  -0.045
 -0.000 -64.494  -0.000  -0.000  11.929  -0.000  -0.002  -0.008
 -0.000  -0.000 -64.493  -0.000  -0.000  11.929   0.001  -0.002
 11.929  -0.000  -0.000   4.129  -0.000  -0.000   0.002   0.008
 -0.000  11.929  -0.000  -0.000   4.129  -0.000   0.000   0.001
 -0.000  -0.000  11.929  -0.000  -0.000   4.129   0.000   0.000
 -0.009  -0.002   0.001   0.002   0.000   0.000 -16.928   0.001
 -0.045  -0.008  -0.002   0.008   0.001   0.000   0.001 -16.926
  0.002  -0.063   0.004  -0.001   0.011  -0.001  -0.002  -0.001
 -0.002  -0.013  -0.047   0.000   0.002   0.008   0.005  -0.002
  0.013  -0.001  -0.010  -0.002   0.000   0.002   0.002   0.004
 -0.009  -0.002   0.001   0.002   0.000   0.000 -16.450   0.001
 -0.043  -0.007  -0.002   0.008   0.001   0.000   0.001 -16.448
  0.002  -0.060   0.003  -0.000   0.010  -0.001  -0.002  -0.001
 -0.002  -0.012  -0.045   0.000   0.002   0.008   0.004  -0.002
  0.012  -0.001  -0.009  -0.002   0.000   0.002   0.002   0.004
  0.004   0.036   0.008   0.001   0.006   0.001  -0.000  -0.000
 -0.006  -0.051  -0.011  -0.001  -0.009  -0.002   0.000   0.000
 total augmentation occupancy for first ion, spin component:           1
  2.000  -0.000   0.000   0.003   0.000   0.000   0.002   0.010  -0.001  -0.000   0.000  -0.002  -0.010   0.001   0.000  -0.000
 -0.000   2.000  -0.000   0.000   0.003   0.000  -0.000   0.001   0.010   0.001  -0.000   0.000  -0.001  -0.010  -0.001   0.000
  0.000  -0.000   2.000   0.000   0.000   0.003   0.003  -0.000  -0.002   0.010   0.002  -0.003   0.000   0.002  -0.010  -0.002
  0.003   0.000   0.000   0.769  -0.000  -0.000  -0.089  -0.426   0.082   0.093  -0.284   0.088   0.424  -0.081  -0.092   0.279
  0.000   0.003   0.000  -0.000   0.766  -0.001   0.093   0.052   0.044   0.087   0.051  -0.092  -0.050  -0.038  -0.085  -0.050
  0.000   0.000   0.003  -0.000  -0.001   0.769  -0.375   0.093   0.139  -0.325  -0.064   0.370  -0.092  -0.137   0.324   0.064
  0.002  -0.000   0.003  -0.089   0.093  -0.375   5.073   0.227  -0.790   1.703   0.727  -3.063  -0.224   0.785  -1.692  -0.722
  0.010   0.001  -0.000  -0.426   0.052   0.093   0.227   6.114  -0.360  -0.914   1.505  -0.224  -4.092   0.358   0.909  -1.497
 -0.001   0.010  -0.002   0.082   0.044   0.139  -0.790  -0.360   3.517  -0.606  -0.430   0.785   0.358  -1.510   0.602   0.428
 -0.000   0.001   0.010   0.093   0.087  -0.325   1.703  -0.914  -0.606   5.118   0.107  -1.692   0.909   0.602  -3.101  -0.105
  0.000  -0.000   0.002  -0.284   0.051  -0.064   0.727   1.505  -0.430   0.107   4.134  -0.722  -1.497   0.428  -0.105  -2.130
 -0.002   0.000  -0.003   0.088  -0.092   0.370  -3.063  -0.224   0.785  -1.692  -0.722   3.052   0.221  -0.780   1.681   0.718
 -0.010  -0.001   0.000   0.424  -0.050  -0.092  -0.224  -4.092   0.358   0.909  -1.497   0.221   4.067  -0.356  -0.903   1.488
  0.001  -0.010   0.002  -0.081  -0.038  -0.137   0.785   0.358  -1.510   0.602   0.428  -0.780  -0.356   1.501  -0.599  -0.425
  0.000  -0.001  -0.010  -0.092  -0.085   0.324  -1.692   0.909   0.602  -3.101  -0.105   1.681  -0.903  -0.599   3.083   0.103
 -0.000   0.000  -0.002   0.279  -0.050   0.064  -0.722  -1.497   0.428  -0.105  -2.130   0.718   1.488  -0.425   0.103   2.124
  0.000   0.000   0.000  -0.007  -0.054  -0.011   0.001   0.007   0.031   0.011   0.001  -0.001  -0.007  -0.031  -0.011  -0.001
 -0.000  -0.000  -0.000   0.004   0.030   0.006   0.000   0.000   0.002   0.001   0.000  -0.000  -0.000  -0.002  -0.001  -0.000


------------------------ aborting loop because EDIFF is reached ----------------------------------------


    CHARGE:  cpu time    0.5110: real time    0.5110
    FORLOC:  cpu time    0.0043: real time    0.0043
    FORNL :  cpu time    1.7397: real time    1.7388
    STRESS:  cpu time    5.2178: real time    5.2150
    FORCOR:  cpu time    0.0570: real time    0.0570
    FORHAR:  cpu time    0.0150: real time    0.0150
    MIXING:  cpu time    0.0027: real time    0.0027
    OFIELD:  cpu time    0.0000: real time    0.0000

  FORCE on cell =-STRESS in cart. coord.  units (eV):
  Direction    XX          YY          ZZ          XY          YZ          ZX
  --------------------------------------------------------------------------------------
  Alpha Z   210.88670   210.88670   210.88670
  Ewald   -1328.27535 -1285.89998 -2768.68056   -38.90689  -186.56812  -314.03866
  Hartree  1583.13955  1619.68285   340.96857   -33.55229  -160.89182  -270.81939
  E(xc)    -308.89387  -308.89302  -308.92284    -0.00078    -0.00375    -0.00631
  Local   -1930.14296 -2009.02873   751.32669    72.42919   347.31661   584.61682
  n-local   349.80995   350.38108   349.51247     0.03226    -0.73319     0.12242
  augment   506.29007   506.28829   506.34716     0.00157     0.00739     0.01244
  Kinetic   913.35097   924.82600   920.65624     1.69107    -1.29132     1.57575
  Fock        0.00000     0.00000     0.00000     0.00000     0.00000     0.00000
  -------------------------------------------------------------------------------------
  Total       2.20032     2.20330     2.09907    -0.00273    -0.01311    -0.02207
  in kB      24.42789    24.46095    23.30385    -0.03036    -0.14559    -0.24506
  external pressure =       24.06 kB  Pullay stress =        0.00 kB


 VOLUME and BASIS-vectors are now :
 -----------------------------------------------------------------------------
  energy-cutoff  :      441.00
  volume of cell :      144.31
      direct lattice vectors                 reciprocal lattice vectors
     4.034712000  0.000000000  9.253036000     0.247849165 -0.134972103  0.000000000
     1.929624000  3.543367000  9.253036000     0.000000000  0.282217450  0.000000000
     0.000000000  0.000000000 10.094433000    -0.227190298 -0.134972068  0.099064504

  length of vectors
    10.094432928 10.094432807 10.094433000     0.282217429  0.282217450  0.282217410


 FORCES acting on ions
    electron-ion (+dipol)            ewald-force                    non-local-force                 convergence-correction
 -----------------------------------------------------------------------------------------------
   -.104E+03 -.618E+02 -.499E+03   0.102E+03 0.609E+02 0.491E+03   0.150E+01 0.889E+00 0.718E+01   0.112E-02 0.668E-03 0.539E-02
   0.104E+03 0.618E+02 0.499E+03   -.102E+03 -.609E+02 -.491E+03   -.150E+01 -.889E+00 -.718E+01   -.112E-02 -.668E-03 -.539E-02
   -.399E-14 0.117E-14 -.117E-13   0.213E-13 -.355E-14 0.497E-13   0.000E+00 0.000E+00 0.157E-22   -.145E-12 -.933E-13 -.708E-12
   0.623E+02 0.370E+02 0.299E+03   -.629E+02 -.374E+02 -.302E+03   0.577E+00 0.343E+00 0.277E+01   0.307E-03 0.183E-03 0.147E-02
   -.623E+02 -.370E+02 -.299E+03   0.629E+02 0.374E+02 0.302E+03   -.577E+00 -.343E+00 -.277E+01   -.307E-03 -.183E-03 -.147E-02
 -----------------------------------------------------------------------------------------------
   -.627E-13 -.243E-11 0.191E-10   0.355E-13 -.711E-14 0.171E-12   -.555E-15 0.111E-15 0.000E+00   -.569E-12 -.326E-12 -.236E-11
 
 
 POSITION                                       TOTAL-FORCE (eV/Angst)
 -----------------------------------------------------------------------------------
      2.37640      1.41180     11.39544        -0.023236     -0.013805     -0.111425
      3.58794      2.13157     17.20506         0.023236      0.013805      0.111425
      0.00000      0.00000      0.00000        -0.000000      0.000000      0.000000
      1.28660      0.76436      6.16956        -0.071704     -0.042599     -0.343839
      4.67774      2.77901     22.43095         0.071704      0.042599      0.343839
 -----------------------------------------------------------------------------------
    total drift:                               -0.000000     -0.000000      0.000000


--------------------------------------------------------------------------------------------------------



  FREE ENERGIE OF THE ION-ELECTRON SYSTEM (eV)
  ---------------------------------------------------
  free  energy   TOTEN  =       -20.08014459 eV

  energy  without entropy=      -20.08021314  energy(sigma->0) =      -20.08016173
 


--------------------------------------------------------------------------------------------------------


    POTLOK:  cpu time    0.0580: real time    0.0580


--------------------------------------------------------------------------------------------------------


 writing wavefunctions
     LOOP+:  cpu time  100.5411: real time  103.6043
    4ORBIT:  cpu time    0.0000: real time    0.0000

 total amount of memory used by VASP on root node    48411. kBytes
========================================================================

   base      :      30000. kBytes
   nonlr-proj:       1724. kBytes
   fftplans  :       3113. kBytes
   grid      :       5102. kBytes
   one-center:         15. kBytes
   wavefun   :       8457. kBytes
 
  
  
 General timing and accounting informations for this job:
 ========================================================
  
                  Total CPU time used (sec):      103.712
                            User time (sec):      102.952
                          System time (sec):        0.760
                         Elapsed time (sec):      107.694
  
                   Maximum memory used (kb):       71328.
                   Average memory used (kb):           0.
  
                          Minor page faults:        35767
                          Major page faults:            0
                 Voluntary context switches:         5801
