 vasp.5.4.1 24Jun15 (build Jun 17 2016 15:57:28) complex                        
  
 executed on           IFC91_ompi date 2016.11.24  11:02:31
 running on   16 total cores
 distrk:  each k-point on   16 cores,    1 groups
 distr:  one band on NCORES_PER_BAND=  16 cores,    1 groups


--------------------------------------------------------------------------------------------------------


 INCAR:
 POTCAR:    PAW_PBE Bi_pv 29Jan08 GW ready        
 POTCAR:   PAW_PBE Se 06Sep2000                   

 ----------------------------------------------------------------------------- 
|                                                                             |
|           W    W    AA    RRRRR   N    N  II  N    N   GGGG   !!!           |
|           W    W   A  A   R    R  NN   N  II  NN   N  G    G  !!!           |
|           W    W  A    A  R    R  N N  N  II  N N  N  G       !!!           |
|           W WW W  AAAAAA  RRRRR   N  N N  II  N  N N  G  GGG   !            |
|           WW  WW  A    A  R   R   N   NN  II  N   NN  G    G                |
|           W    W  A    A  R    R  N    N  II  N    N   GGGG   !!!           |
|                                                                             |
|      For optimal performance we recommend to set                            |
|        NCORE= 4 - approx SQRT( number of cores)                             |
|      NCORE specifies how many cores store one orbital (NPAR=cpu/NCORE).     |
|      This setting can  greatly improve the performance of VASP for DFT.     |
|      The default, NPAR=number of cores might be grossly inefficient         |
|      on modern multi-core architectures or massively parallel machines.     |
|      Do your own testing !!!!                                               |
|      Unfortunately you need to use the default for GW and RPA calculations. |
|      (for HF NCORE is supported but not extensively tested yet)             |
|                                                                             |
 ----------------------------------------------------------------------------- 

 POTCAR:    PAW_PBE Bi_pv 29Jan08 GW ready        
   VRHFIN =Bi:                                                                  
   LEXCH  = PE                                                                  
   EATOM  =  4638.5322 eV,  340.9225 Ry                                         
                                                                                
   TITEL  = PAW_PBE Bi_pv 29Jan08 GW ready                                      
   LULTRA =        F    use ultrasoft PP ?                                      
   IUNSCR =        1    unscreen: 0-lin 1-nonlin 2-no                           
   RPACOR =    2.200    partial core radius                                     
   POMASS =  208.980; ZVAL   =   21.000    mass and valenz                      
   RCORE  =    2.500    outmost cutoff radius                                   
   RWIGS  =    3.090; RWIGS  =    1.635    wigner-seitz radius (au A)           
   ENMAX  =  309.187; ENMIN  =  231.890 eV                                      
   ICORE  =        3    local potential                                         
   LCOR   =        T    correct aug charges                                     
   LPAW   =        T    paw PP                                                  
   EAUG   =  442.899                                                            
   DEXC   =    0.000                                                            
   RMAX   =    2.622    core radius for proj-oper                               
   RAUG   =    1.300    factor for augmentation sphere                          
   RDEP   =    2.650    radius for radial grids                                 
   QCUT   =   -4.767; QGAM   =    9.534    optimization parameters              
                                                                                
   Description                                                                  
     l     E      TYP  RCUT    TYP  RCUT                                        
     1   -95.81     23  1.900                                                   
     1    -4.57     23  1.900                                                   
     2   -27.08     23  2.200                                                   
     2   -28.44     23  2.200                                                   
     0   -14.47     23  2.500                                                   
     0     6.80     23  2.500                                                   
     3    -1.36      7  2.200                                                   
  local pseudopotential read in
  partial core-charges read in
  atomic valenz-charges read in
  non local Contribution for L=           1  read in
    real space projection operators read in
  non local Contribution for L=           1  read in
    real space projection operators read in
  non local Contribution for L=           2  read in
    real space projection operators read in
  non local Contribution for L=           2  read in
    real space projection operators read in
  non local Contribution for L=           0  read in
    real space projection operators read in
  non local Contribution for L=           0  read in
    real space projection operators read in
    PAW grid and wavefunctions read in
 
   number of l-projection  operators is LMAX  =           6
   number of lm-projection operators is LMMAX =          18
 
 POTCAR:   PAW_PBE Se 06Sep2000                   
   VRHFIN =Se: s2p4                                                             
   LEXCH  = PE                                                                  
   EATOM  =   256.9644 eV,   18.8864 Ry                                         
                                                                                
   TITEL  = PAW_PBE Se 06Sep2000                                                
   LULTRA =        F    use ultrasoft PP ?                                      
   IUNSCR =        1    unscreen: 0-lin 1-nonlin 2-no                           
   RPACOR =    1.900    partial core radius                                     
   POMASS =   78.960; ZVAL   =    6.000    mass and valenz                      
   RCORE  =    2.100    outmost cutoff radius                                   
   RWIGS  =    2.200; RWIGS  =    1.164    wigner-seitz radius (au A)           
   ENMAX  =  211.534; ENMIN  =  158.651 eV                                      
   ICORE  =        3    local potential                                         
   LCOR   =        T    correct aug charges                                     
   LPAW   =        T    paw PP                                                  
   EAUG   =  446.842                                                            
   DEXC   =    -.031                                                            
   RMAX   =    3.170    core radius for proj-oper                               
   RAUG   =    1.300    factor for augmentation sphere                          
   RDEP   =    2.177    radius for radial grids                                 
   QCUT   =   -3.943; QGAM   =    7.886    optimization parameters              
                                                                                
   Description                                                                  
     l     E      TYP  RCUT    TYP  RCUT                                        
     0   .000     23  2.100                                                     
     0   .000     23  2.100                                                     
     1   .000     23  2.100                                                     
     1   .000     23  2.100                                                     
     2   .000     23  2.100                                                     
     3  -.100      7  2.100                                                     
  local pseudopotential read in
  partial core-charges read in
  atomic valenz-charges read in
  non local Contribution for L=           0  read in
    real space projection operators read in
  non local Contribution for L=           0  read in
    real space projection operators read in
  non local Contribution for L=           1  read in
    real space projection operators read in
  non local Contribution for L=           1  read in
    real space projection operators read in
  non local Contribution for L=           2  read in
    real space projection operators read in
    PAW grid and wavefunctions read in
 
   number of l-projection  operators is LMAX  =           5
   number of lm-projection operators is LMMAX =          13
 

 ----------------------------------------------------------------------------- 
|                                                                             |
|  ADVICE TO THIS USER RUNNING 'VASP/VAMP'   (HEAR YOUR MASTER'S VOICE ...):  |
|                                                                             |
|      You have a (more or less) 'small supercell' and for smaller cells      |
|      it is recommended  to use the reciprocal-space projection scheme!      |
|      The real space optimization is not  efficient for small cells and it   |
|      is also less accurate ...                                              |
|      Therefore set LREAL=.FALSE. in the  INCAR file                         |
|                                                                             |
 ----------------------------------------------------------------------------- 

 Optimization of the real space projectors (new method)

 maximal supplied QI-value         = 15.12
 optimisation between [QCUT,QGAM] = [ 10.73, 21.47] = [ 32.26,129.05] Ry 
 Optimized for a Real-space Cutoff    1.44 Angstroem

   l    n(q)    QCUT    max X(q) W(low)/X(q) W(high)/X(q)  e(spline) 
   1      9    10.734     2.850    0.13E-03    0.22E-03    0.28E-06
   1      9    10.734     6.992    0.16E-03    0.36E-03    0.33E-06
   2      8    10.734    50.816    0.52E-04    0.12E-03    0.13E-06
   2      8    10.734    51.435    0.54E-04    0.12E-03    0.13E-06
   0      9    10.734    20.448    0.23E-03    0.26E-04    0.20E-06
   0      9    10.734     8.797    0.34E-03    0.39E-04    0.29E-06
 Optimization of the real space projectors (new method)

 maximal supplied QI-value         = 17.95
 optimisation between [QCUT,QGAM] = [ 10.59, 21.36] = [ 31.42,127.80] Ry 
 Optimized for a Real-space Cutoff    1.28 Angstroem

   l    n(q)    QCUT    max X(q) W(low)/X(q) W(high)/X(q)  e(spline) 
   0      8    10.592     6.499    0.15E-04    0.12E-04    0.11E-07
   0      8    10.592    52.623    0.14E-03    0.24E-03    0.47E-07
   1      8    10.592     4.229    0.15E-04    0.48E-04    0.38E-07
   1      8    10.592    29.991    0.48E-03    0.71E-04    0.83E-07
   2      7    10.592     3.719    0.14E-03    0.26E-03    0.49E-07
  PAW_PBE Bi_pv 29Jan08 GW ready        :
 energy of atom  1       EATOM=-4638.5322
 kinetic energy error for atom=    0.0832 (will be added to EATOM!!)
 PAW_PBE Se 06Sep2000                   :
 energy of atom  2       EATOM= -256.9644
 kinetic energy error for atom=    0.0012 (will be added to EATOM!!)
 
 
 POSCAR: i2a=[Bi,Se] ; Bi2Se3.su.static.4        
  positions in direct lattice
  No initial velocities read in
 exchange correlation table for  LEXCH =        8
   RHO(1)=    0.500       N(1)  =     2000
   RHO(2)=  100.500       N(2)  =     4000
 


--------------------------------------------------------------------------------------------------------


 ion  position               nearest neighbor table
   1  0.398  0.398  0.398-   5 2.89   5 2.89   5 2.89   3 3.11   3 3.11   3 3.11
   2  0.602  0.602  0.602-   4 2.89   4 2.89   4 2.89   3 3.11   3 3.11   3 3.11
   3  0.000  0.000  0.000-   2 3.11   1 3.11   1 3.11   2 3.11   2 3.11   1 3.11
   4  0.216  0.216  0.216-   2 2.89   2 2.89   2 2.89
   5  0.784  0.784  0.784-   1 2.89   1 2.89   1 2.89
 
  LATTYP: Found a trigonal (rhomboedric) cell.
 ALAT       =    10.2655250000
 COS(alpha) =     0.9166474496
  
  Lattice vectors:
  
 A1 = (   4.1030970000,   0.0000000000,   9.4098670000)
 A2 = (   1.9623290000,   3.6034240000,   9.4098670000)
 A3 = (   0.0000000000,   0.0000000000,  10.2655250000)


Analysis of symmetry for initial positions (statically):
=====================================================================
 Subroutine PRICEL returns:
 Original cell was already a primitive cell.
 

 Routine SETGRP: Setting up the symmetry group for a 
 trigonal (rhombohedral) supercell.


 Subroutine GETGRP returns: Found 12 space group operations
 (whereof 12 operations were pure point group operations)
 out of a pool of 12 trial point group operations.


The static configuration has the point symmetry D_3d.


Analysis of symmetry for dynamics (positions and initial velocities):
=====================================================================
 Subroutine PRICEL returns:
 Original cell was already a primitive cell.
 

 Routine SETGRP: Setting up the symmetry group for a 
 trigonal (rhombohedral) supercell.


 Subroutine GETGRP returns: Found 12 space group operations
 (whereof 12 operations were pure point group operations)
 out of a pool of 12 trial point group operations.


The dynamic configuration has the point symmetry D_3d.
 
 
 KPOINTS: Automatic Mesh                          

Automatic generation of k-mesh.
Space group operators:
 irot       det(A)        alpha          n_x          n_y          n_z        tau_x        tau_y        tau_z
    1     1.000000     0.000001     1.000000     0.000000     0.000000     0.000000     0.000000     0.000000
    2    -1.000000     0.000001     1.000000     0.000000     0.000000     0.000000     0.000000     0.000000
    3     1.000000   180.000000     0.468184     0.859725    -0.204148     0.000000     0.000000     0.000000
    4    -1.000000   180.000000     0.468184     0.859725    -0.204148     0.000000     0.000000     0.000000
    5     1.000000   120.000000    -0.202663    -0.120400    -0.971819     0.000000     0.000000     0.000000
    6    -1.000000   120.000000    -0.202663    -0.120400    -0.971819     0.000000     0.000000     0.000000
    7     1.000000   180.000000     0.510756    -0.859725     0.000000     0.000000     0.000000     0.000000
    8    -1.000000   180.000000     0.510756    -0.859725     0.000000     0.000000     0.000000     0.000000
    9     1.000000   120.000000     0.202663     0.120400     0.971819     0.000000     0.000000     0.000000
   10    -1.000000   120.000000     0.202663     0.120400     0.971819     0.000000     0.000000     0.000000
   11     1.000000   180.000000     0.978940     0.000000    -0.204148     0.000000     0.000000     0.000000
   12    -1.000000   180.000000     0.978940     0.000000    -0.204148     0.000000     0.000000     0.000000
 
 Subroutine IBZKPT returns following result:
 ===========================================
 
 Found     65 irreducible k-points:
 
 Following reciprocal coordinates:
            Coordinates               Weight
  0.000000  0.000000  0.000000      1.000000
  0.125000 -0.000000  0.000000      6.000000
  0.250000 -0.000000  0.000000      6.000000
  0.375000  0.000000  0.000000      6.000000
  0.500000 -0.000000  0.000000      3.000000
  0.125000  0.125000  0.000000      6.000000
  0.250000  0.125000  0.000000     12.000000
  0.375000  0.125000  0.000000     12.000000
  0.500000  0.125000  0.000000     12.000000
 -0.375000  0.125000  0.000000     12.000000
 -0.250000  0.125000  0.000000     12.000000
 -0.125000  0.125000  0.000000      6.000000
  0.250000  0.250000  0.000000      6.000000
  0.375000  0.250000  0.000000     12.000000
  0.500000  0.250000  0.000000     12.000000
 -0.375000  0.250000  0.000000     12.000000
 -0.250000  0.250000  0.000000      6.000000
  0.375000  0.375000  0.000000      6.000000
  0.500000  0.375000  0.000000     12.000000
 -0.375000  0.375000  0.000000      6.000000
  0.500000  0.500000  0.000000      3.000000
  0.125000  0.125000  0.125000      2.000000
  0.250000  0.125000  0.125000      6.000000
  0.375000  0.125000  0.125000      6.000000
  0.500000  0.125000  0.125000      6.000000
 -0.375000  0.125000  0.125000      6.000000
 -0.250000  0.125000  0.125000      6.000000
 -0.125000  0.125000  0.125000      6.000000
  0.250000  0.250000  0.125000      6.000000
  0.375000  0.250000  0.125000     12.000000
  0.500000  0.250000  0.125000     12.000000
 -0.375000  0.250000  0.125000     12.000000
 -0.250000  0.250000  0.125000     12.000000
 -0.125000  0.250000  0.125000     12.000000
  0.375000  0.375000  0.125000      6.000000
  0.500000  0.375000  0.125000     12.000000
 -0.375000  0.375000  0.125000     12.000000
 -0.250000  0.375000  0.125000     12.000000
 -0.125000  0.375000  0.125000     12.000000
  0.500000  0.500000  0.125000      6.000000
 -0.375000  0.500000  0.125000     12.000000
 -0.250000  0.500000  0.125000     12.000000
 -0.125000  0.500000  0.125000      6.000000
 -0.375000 -0.375000  0.125000      6.000000
 -0.250000 -0.375000  0.125000     12.000000
 -0.250000 -0.250000  0.125000      6.000000
  0.250000  0.250000  0.250000      2.000000
  0.375000  0.250000  0.250000      6.000000
  0.500000  0.250000  0.250000      6.000000
 -0.375000  0.250000  0.250000      6.000000
 -0.250000  0.250000  0.250000      6.000000
  0.375000  0.375000  0.250000      6.000000
  0.500000  0.375000  0.250000     12.000000
 -0.375000  0.375000  0.250000     12.000000
 -0.250000  0.375000  0.250000     12.000000
  0.500000  0.500000  0.250000      6.000000
 -0.375000  0.500000  0.250000     12.000000
 -0.250000  0.500000  0.250000      6.000000
 -0.375000 -0.375000  0.250000      6.000000
  0.375000  0.375000  0.375000      2.000000
  0.500000  0.375000  0.375000      6.000000
 -0.375000  0.375000  0.375000      6.000000
  0.500000  0.500000  0.375000      6.000000
 -0.375000  0.500000  0.375000      6.000000
  0.500000  0.500000  0.500000      1.000000
 
 Following cartesian coordinates:
            Coordinates               Weight
  0.000000  0.000000  0.000000      1.000000
  0.030465 -0.016590  0.000000      6.000000
  0.060930 -0.033181  0.000000      6.000000
  0.091394 -0.049771  0.000000      6.000000
  0.121859 -0.066361  0.000000      3.000000
  0.030465  0.018099  0.000000      6.000000
  0.060930  0.001509  0.000000     12.000000
  0.091394 -0.015082  0.000000     12.000000
  0.121859 -0.031672  0.000000     12.000000
 -0.091394  0.084460  0.000000     12.000000
 -0.060930  0.067870  0.000000     12.000000
 -0.030465  0.051280  0.000000      6.000000
  0.060930  0.036198  0.000000      6.000000
  0.091394  0.019608  0.000000     12.000000
  0.121859  0.003017  0.000000     12.000000
 -0.091394  0.119149  0.000000     12.000000
 -0.060930  0.102559  0.000000      6.000000
  0.091394  0.054297  0.000000      6.000000
  0.121859  0.037706  0.000000     12.000000
 -0.091394  0.153839  0.000000      6.000000
  0.121859  0.072396  0.000000      3.000000
  0.002539  0.001509  0.012177      2.000000
  0.033004 -0.015082  0.012177      6.000000
  0.063469 -0.031672  0.012177      6.000000
  0.093934 -0.048262  0.012177      6.000000
 -0.119320  0.067870  0.012177      6.000000
 -0.088855  0.051280  0.012177      6.000000
 -0.058390  0.034689  0.012177      6.000000
  0.033004  0.019608  0.012177      6.000000
  0.063469  0.003017  0.012177     12.000000
  0.093934 -0.013573  0.012177     12.000000
 -0.119320  0.102559  0.012177     12.000000
 -0.088855  0.085969  0.012177     12.000000
 -0.058390  0.069378  0.012177     12.000000
  0.063469  0.037706  0.012177      6.000000
  0.093934  0.021116  0.012177     12.000000
 -0.119320  0.137248  0.012177     12.000000
 -0.088855  0.120658  0.012177     12.000000
 -0.058390  0.104068  0.012177     12.000000
  0.093934  0.055805  0.012177      6.000000
 -0.119320  0.171938  0.012177     12.000000
 -0.088855  0.155347  0.012177     12.000000
 -0.058390  0.138757  0.012177      6.000000
 -0.119320 -0.070887  0.012177      6.000000
 -0.088855 -0.087477  0.012177     12.000000
 -0.088855 -0.052788  0.012177      6.000000
  0.005079  0.003017  0.024353      2.000000
  0.035543 -0.013573  0.024353      6.000000
  0.066008 -0.030163  0.024353      6.000000
 -0.147245  0.085969  0.024353      6.000000
 -0.116781  0.069378  0.024353      6.000000
  0.035543  0.021116  0.024353      6.000000
  0.066008  0.004526  0.024353     12.000000
 -0.147245  0.120658  0.024353     12.000000
 -0.116781  0.104068  0.024353     12.000000
  0.066008  0.039215  0.024353      6.000000
 -0.147245  0.155347  0.024353     12.000000
 -0.116781  0.138757  0.024353      6.000000
 -0.147245 -0.087477  0.024353      6.000000
  0.007618  0.004526  0.036530      2.000000
  0.038083 -0.012065  0.036530      6.000000
 -0.175171  0.104068  0.036530      6.000000
  0.038083  0.022625  0.036530      6.000000
 -0.175171  0.138757  0.036530      6.000000
  0.010157  0.006034  0.048707      1.000000
 


--------------------------------------------------------------------------------------------------------




 Dimension of arrays:
   k-points           NKPTS =     65   k-points in BZ     NKDIM =     65   number of bands    NBANDS=     38
   number of dos      NEDOS =    301   number of ions     NIONS =      5
   non local maximal  LDIM  =      6   non local SUM 2l+1 LMDIM =     18
   total plane-waves  NPLWV = 157464
   max r-space proj   IRMAX =  12937   max aug-charges    IRDMAX=  46044
   dimension x,y,z NGX =    54 NGY =   54 NGZ =   54
   dimension x,y,z NGXF=   108 NGYF=  108 NGZF=  108
   support grid    NGXF=   108 NGYF=  108 NGZF=  108
   ions per type =               2   3
 NGX,Y,Z   is equivalent  to a cutoff of   8.75,  8.75,  8.75 a.u.
 NGXF,Y,Z  is equivalent  to a cutoff of  17.49, 17.49, 17.49 a.u.


 I would recommend the setting:
   dimension x,y,z NGX =    53 NGY =   53 NGZ =   53
 SYSTEM =  obtained from ('Bi2Se3', 'static', 1) b 
 POSCAR =  i2a=[Bi,Se] ; Bi2Se3.su.static.4        

 Startparameter for this run:
   NWRITE =      2    write-flag & timer
   PREC   = normal    normal or accurate (medium, high low for compatibility)
   ISTART =      0    job   : 0-new  1-cont  2-samecut
   ICHARG =      2    charge: 1-file 2-atom 10-const
   ISPIN  =      1    spin polarized calculation?
   LNONCOLLINEAR =      F non collinear calculations
   LSORBIT =      F    spin-orbit coupling
   INIWAV =      1    electr: 0-lowe 1-rand  2-diag
   LASPH  =      F    aspherical Exc in radial PAW
   METAGGA=      F    non-selfconsistent MetaGGA calc.

 Electronic Relaxation 1
   ENCUT  =  441.0 eV  32.41 Ry    5.69 a.u.  17.58 17.58 17.58*2*pi/ulx,y,z
   ENINI  =  441.0     initial cutoff
   ENAUG  =  776.2 eV  augmentation charge cutoff
   NELM   =     50;   NELMIN=  4; NELMDL= -5     # of ELM steps 
   EDIFF  = 0.6E-05   stopping-criterion for ELM
   LREAL  =      T    real-space projection
   NLSPLINE    = F    spline interpolate recip. space projectors
   LCOMPAT=      F    compatible to vasp.4.4
   GGA_COMPAT  = T    GGA compatible to vasp.4.4-vasp.4.6
   LMAXPAW     = -100 max onsite density
   LMAXMIX     =    2 max onsite mixed and CHGCAR
   VOSKOWN=      0    Vosko Wilk Nusair interpolation
   ROPT   =   -0.00050  -0.00050
 Ionic relaxation
   EDIFFG = 0.0E+00   stopping-criterion for IOM
   NSW    =      0    number of steps for IOM
   NBLOCK =      1;   KBLOCK =      1    inner block; outer block 
   IBRION =     -1    ionic relax: 0-MD 1-quasi-New 2-CG
   NFREE  =      0    steps in history (QN), initial steepest desc. (CG)
   ISIF   =      2    stress and relaxation
   IWAVPR =     10    prediction:  0-non 1-charg 2-wave 3-comb
   ISYM   =      2    0-nonsym 1-usesym 2-fastsym
   LCORR  =      T    Harris-Foulkes like correction to forces

   POTIM  = 0.5000    time-step for ionic-motion
   TEIN   =    0.0    initial temperature
   TEBEG  =    0.0;   TEEND  =   0.0 temperature during run
   SMASS  =  -3.00    Nose mass-parameter (am)
   estimated Nose-frequenzy (Omega)   =  0.10E-29 period in steps =****** mass=  -0.241E-26a.u.
   SCALEE = 1.0000    scale energy and forces
   NPACO  =    256;   APACO  = 16.0  distance and # of slots for P.C.
   PSTRESS=    0.0 pullay stress

  Mass of Ions in am
   POMASS = 208.98 78.96
  Ionic Valenz
   ZVAL   =  21.00  6.00
  Atomic Wigner-Seitz radii
   RWIGS  =  -1.00 -1.00
  virtual crystal weights 
   VCA    =   1.00  1.00
   NELECT =      60.0000    total number of electrons
   NUPDOWN=      -1.0000    fix difference up-down

 DOS related values:
   EMIN   =  10.00;   EMAX   =-10.00  energy-range for DOS
   EFERMI =   0.00
   ISMEAR =     2;   SIGMA  =   0.20  broadening in eV -4-tet -1-fermi 0-gaus

 Electronic relaxation 2 (details)
   IALGO  =     38    algorithm
   LDIAG  =      T    sub-space diagonalisation (order eigenvalues)
   LSUBROT=      F    optimize rotation matrix (better conditioning)
   TURBO    =      0    0=normal 1=particle mesh
   IRESTART =      0    0=no restart 2=restart with 2 vectors
   NREBOOT  =      0    no. of reboots
   NMIN     =      0    reboot dimension
   EREF     =   0.00    reference energy to select bands
   IMIX   =      4    mixing-type and parameters
     AMIX     =   0.40;   BMIX     =  1.00
     AMIX_MAG =   1.60;   BMIX_MAG =  1.00
     AMIN     =   0.10
     WC   =   100.;   INIMIX=   1;  MIXPRE=   1;  MAXMIX=  40

 Intra band minimization:
   WEIMIN = 0.0000     energy-eigenvalue tresh-hold
   EBREAK =  0.00E+00  absolut break condition
   DEPER  =   0.30     relativ break condition  

   TIME   =   0.40     timestep for ELM

  volume/ion in A,a.u.               =      30.36       204.85
  Fermi-wavevector in a.u.,A,eV,Ry     =   1.201496  2.270499 19.641283  1.443594
  Thomas-Fermi vector in A             =   2.337304
 
 Write flags
   LWAVE  =      T    write WAVECAR
   LCHARG =      T    write CHGCAR
   LVTOT  =      F    write LOCPOT, total local potential
   LVHAR  =      F    write LOCPOT, Hartree potential only
   LELF   =      F    write electronic localiz. function (ELF)
   LORBIT =      0    0 simple, 1 ext, 2 COOP (PROOUT)


 Dipole corrections
   LMONO  =      F    monopole corrections only (constant potential shift)
   LDIPOL =      F    correct potential (dipole corrections)
   IDIPOL =      0    1-x, 2-y, 3-z, 4-all directions 
   EPSILON=  1.0000000 bulk dielectric constant

 Exchange correlation treatment:
   GGA     =    --    GGA type
   LEXCH   =     8    internal setting for exchange type
   VOSKOWN=      0    Vosko Wilk Nusair interpolation
   LHFCALC =     F    Hartree Fock is set to
   LHFONE  =     F    Hartree Fock one center treatment
   AEXX    =    0.0000 exact exchange contribution

 Linear response parameters
   LEPSILON=     F    determine dielectric tensor
   LRPA    =     F    only Hartree local field effects (RPA)
   LNABLA  =     F    use nabla operator in PAW spheres
   LVEL    =     F    velocity operator in full k-point grid
   LINTERFAST=   F  fast interpolation
   KINTER  =     0    interpolate to denser k-point grid
   CSHIFT  =0.1000    complex shift for real part using Kramers Kronig
   OMEGAMAX=  -1.0    maximum frequency
   DEG_THRESHOLD= 0.2000000E-02 threshold for treating states as degnerate
   RTIME   =    0.100 relaxation time in fs

 Orbital magnetization related:
   ORBITALMAG=     F  switch on orbital magnetization
   LCHIMAG   =     F  perturbation theory with respect to B field
   DQ        =  0.001000  dq finite difference perturbation B field



--------------------------------------------------------------------------------------------------------


 Static calculation
 charge density and potential will be updated during run
 non-spin polarized calculation
 Variant of blocked Davidson
 Davidson routine will perform the subspace rotation
 perform sub-space diagonalisation
    after iterative eigenvector-optimisation
 modified Broyden-mixing scheme, WC =      100.0
 initial mixing is a Kerker type mixing with AMIX =  0.4000 and BMIX =      1.0000
 Hartree-type preconditioning will be used
 using additional bands            8
 real space projection scheme for non local part
 use partial core corrections
 calculate Harris-corrections to forces 
   (improved forces if not selfconsistent)
 use gradient corrections 
 use of overlap-Matrix (Vanderbilt PP)
 Methfessel and Paxton  Order N= 2 SIGMA  =   0.20


--------------------------------------------------------------------------------------------------------


  energy-cutoff  :      441.00
  volume of cell :      151.78
      direct lattice vectors                 reciprocal lattice vectors
     4.103097000  0.000000000  9.409867000     0.243718343 -0.132722536  0.000000000
     1.962329000  3.603424000  9.409867000     0.000000000  0.277513831  0.000000000
     0.000000000  0.000000000 10.265525000    -0.223403790 -0.132722567  0.097413430

  length of vectors
    10.265524923 10.265524662 10.265525000     0.277513787  0.277513831  0.277513800


 
 k-points in units of 2pi/SCALE and weight: Automatic Mesh                          
   0.00000000  0.00000000  0.00000000       0.002
   0.03046479 -0.01659032  0.00000000       0.012
   0.06092959 -0.03318063  0.00000000       0.012
   0.09139438 -0.04977095  0.00000000       0.012
   0.12185917 -0.06636127  0.00000000       0.006
   0.03046479  0.01809891  0.00000000       0.012
   0.06092959  0.00150859  0.00000000       0.023
   0.09139438 -0.01508172  0.00000000       0.023
   0.12185917 -0.03167204  0.00000000       0.023
  -0.09139438  0.08446018  0.00000000       0.023
  -0.06092959  0.06786986  0.00000000       0.023
  -0.03046479  0.05127955  0.00000000       0.012
   0.06092959  0.03619782  0.00000000       0.012
   0.09139438  0.01960751  0.00000000       0.023
   0.12185917  0.00301719  0.00000000       0.023
  -0.09139438  0.11914941  0.00000000       0.023
  -0.06092959  0.10255909  0.00000000       0.012
   0.09139438  0.05429674  0.00000000       0.012
   0.12185917  0.03770642  0.00000000       0.023
  -0.09139438  0.15383864  0.00000000       0.012
   0.12185917  0.07239565  0.00000000       0.006
   0.00253932  0.00150859  0.01217668       0.004
   0.03300411 -0.01508173  0.01217668       0.012
   0.06346890 -0.03167204  0.01217668       0.012
   0.09393370 -0.04826236  0.01217668       0.012
  -0.11931985  0.06786986  0.01217668       0.012
  -0.08885506  0.05127954  0.01217668       0.012
  -0.05839027  0.03468922  0.01217668       0.012
   0.03300411  0.01960750  0.01217668       0.012
   0.06346890  0.00301719  0.01217668       0.023
   0.09393370 -0.01357313  0.01217668       0.023
  -0.11931985  0.10255909  0.01217668       0.023
  -0.08885506  0.08596877  0.01217668       0.023
  -0.05839027  0.06937845  0.01217668       0.023
   0.06346890  0.03770641  0.01217668       0.012
   0.09393370  0.02111610  0.01217668       0.023
  -0.11931985  0.13724832  0.01217668       0.023
  -0.08885506  0.12065800  0.01217668       0.023
  -0.05839027  0.10406768  0.01217668       0.023
   0.09393370  0.05580533  0.01217668       0.012
  -0.11931985  0.17193755  0.01217668       0.023
  -0.08885506  0.15534723  0.01217668       0.023
  -0.05839027  0.13875691  0.01217668       0.012
  -0.11931985 -0.07088706  0.01217668       0.012
  -0.08885506 -0.08747737  0.01217668       0.023
  -0.08885506 -0.05278814  0.01217668       0.012
   0.00507864  0.00301718  0.02435336       0.004
   0.03554343 -0.01357313  0.02435336       0.012
   0.06600822 -0.03016345  0.02435336       0.012
  -0.14724533  0.08596877  0.02435336       0.012
  -0.11678053  0.06937845  0.02435336       0.012
   0.03554343  0.02111609  0.02435336       0.012
   0.06600822  0.00452578  0.02435336       0.023
  -0.14724533  0.12065800  0.02435336       0.023
  -0.11678053  0.10406768  0.02435336       0.023
   0.06600822  0.03921501  0.02435336       0.012
  -0.14724533  0.15534722  0.02435336       0.023
  -0.11678053  0.13875691  0.02435336       0.012
  -0.14724533 -0.08747738  0.02435336       0.012
   0.00761796  0.00452577  0.03653004       0.004
   0.03808275 -0.01206454  0.03653004       0.012
  -0.17517080  0.10406767  0.03653004       0.012
   0.03808275  0.02262468  0.03653004       0.012
  -0.17517080  0.13875690  0.03653004       0.012
   0.01015728  0.00603436  0.04870671       0.002
 
 k-points in reciprocal lattice and weights: Automatic Mesh                          
   0.00000000  0.00000000  0.00000000       0.002
   0.12500000 -0.00000000  0.00000000       0.012
   0.25000000 -0.00000000  0.00000000       0.012
   0.37500000  0.00000000  0.00000000       0.012
   0.50000000 -0.00000000  0.00000000       0.006
   0.12500000  0.12500000  0.00000000       0.012
   0.25000000  0.12500000  0.00000000       0.023
   0.37500000  0.12500000  0.00000000       0.023
   0.50000000  0.12500000  0.00000000       0.023
  -0.37500000  0.12500000  0.00000000       0.023
  -0.25000000  0.12500000  0.00000000       0.023
  -0.12500000  0.12500000  0.00000000       0.012
   0.25000000  0.25000000  0.00000000       0.012
   0.37500000  0.25000000  0.00000000       0.023
   0.50000000  0.25000000  0.00000000       0.023
  -0.37500000  0.25000000  0.00000000       0.023
  -0.25000000  0.25000000  0.00000000       0.012
   0.37500000  0.37500000  0.00000000       0.012
   0.50000000  0.37500000  0.00000000       0.023
  -0.37500000  0.37500000  0.00000000       0.012
   0.50000000  0.50000000  0.00000000       0.006
   0.12500000  0.12500000  0.12500000       0.004
   0.25000000  0.12500000  0.12500000       0.012
   0.37500000  0.12500000  0.12500000       0.012
   0.50000000  0.12500000  0.12500000       0.012
  -0.37500000  0.12500000  0.12500000       0.012
  -0.25000000  0.12500000  0.12500000       0.012
  -0.12500000  0.12500000  0.12500000       0.012
   0.25000000  0.25000000  0.12500000       0.012
   0.37500000  0.25000000  0.12500000       0.023
   0.50000000  0.25000000  0.12500000       0.023
  -0.37500000  0.25000000  0.12500000       0.023
  -0.25000000  0.25000000  0.12500000       0.023
  -0.12500000  0.25000000  0.12500000       0.023
   0.37500000  0.37500000  0.12500000       0.012
   0.50000000  0.37500000  0.12500000       0.023
  -0.37500000  0.37500000  0.12500000       0.023
  -0.25000000  0.37500000  0.12500000       0.023
  -0.12500000  0.37500000  0.12500000       0.023
   0.50000000  0.50000000  0.12500000       0.012
  -0.37500000  0.50000000  0.12500000       0.023
  -0.25000000  0.50000000  0.12500000       0.023
  -0.12500000  0.50000000  0.12500000       0.012
  -0.37500000 -0.37500000  0.12500000       0.012
  -0.25000000 -0.37500000  0.12500000       0.023
  -0.25000000 -0.25000000  0.12500000       0.012
   0.25000000  0.25000000  0.25000000       0.004
   0.37500000  0.25000000  0.25000000       0.012
   0.50000000  0.25000000  0.25000000       0.012
  -0.37500000  0.25000000  0.25000000       0.012
  -0.25000000  0.25000000  0.25000000       0.012
   0.37500000  0.37500000  0.25000000       0.012
   0.50000000  0.37500000  0.25000000       0.023
  -0.37500000  0.37500000  0.25000000       0.023
  -0.25000000  0.37500000  0.25000000       0.023
   0.50000000  0.50000000  0.25000000       0.012
  -0.37500000  0.50000000  0.25000000       0.023
  -0.25000000  0.50000000  0.25000000       0.012
  -0.37500000 -0.37500000  0.25000000       0.012
   0.37500000  0.37500000  0.37500000       0.004
   0.50000000  0.37500000  0.37500000       0.012
  -0.37500000  0.37500000  0.37500000       0.012
   0.50000000  0.50000000  0.37500000       0.012
  -0.37500000  0.50000000  0.37500000       0.012
   0.50000000  0.50000000  0.50000000       0.002
 
 position of ions in fractional coordinates (direct lattice) 
   0.39843500  0.39843500  0.39843500
   0.60156500  0.60156500  0.60156500
   0.00000000  0.00000000  0.00000000
   0.21571500  0.21571500  0.21571500
   0.78428500  0.78428500  0.78428500
 
 position of ions in cartesian coordinates  (Angst):
   2.41667801  1.43573024 11.58858517
   3.64874799  2.16769376 17.49667383
   0.00000000  0.00000000  0.00000000
   1.30840337  0.77731261  6.27412665
   4.75702263  2.82611139 22.81113235
 


--------------------------------------------------------------------------------------------------------


 k-point  1 :   0.0000 0.0000 0.0000  plane waves:    3173
 k-point  2 :   0.1250-0.0000 0.0000  plane waves:    3188
 k-point  3 :   0.2500-0.0000 0.0000  plane waves:    3189
 k-point  4 :   0.3750 0.0000 0.0000  plane waves:    3198
 k-point  5 :   0.5000-0.0000 0.0000  plane waves:    3222
 k-point  6 :   0.1250 0.1250 0.0000  plane waves:    3180
 k-point  7 :   0.2500 0.1250 0.0000  plane waves:    3194
 k-point  8 :   0.3750 0.1250 0.0000  plane waves:    3187
 k-point  9 :   0.5000 0.1250 0.0000  plane waves:    3204
 k-point 10 :  -0.3750 0.1250 0.0000  plane waves:    3202
 k-point 11 :  -0.2500 0.1250 0.0000  plane waves:    3183
 k-point 12 :  -0.1250 0.1250 0.0000  plane waves:    3195
 k-point 13 :   0.2500 0.2500 0.0000  plane waves:    3190
 k-point 14 :   0.3750 0.2500 0.0000  plane waves:    3181
 k-point 15 :   0.5000 0.2500 0.0000  plane waves:    3191
 k-point 16 :  -0.3750 0.2500 0.0000  plane waves:    3204
 k-point 17 :  -0.2500 0.2500 0.0000  plane waves:    3191
 k-point 18 :   0.3750 0.3750 0.0000  plane waves:    3190
 k-point 19 :   0.5000 0.3750 0.0000  plane waves:    3184
 k-point 20 :  -0.3750 0.3750 0.0000  plane waves:    3209
 k-point 21 :   0.5000 0.5000 0.0000  plane waves:    3190
 k-point 22 :   0.1250 0.1250 0.1250  plane waves:    3178
 k-point 23 :   0.2500 0.1250 0.1250  plane waves:    3192
 k-point 24 :   0.3750 0.1250 0.1250  plane waves:    3190
 k-point 25 :   0.5000 0.1250 0.1250  plane waves:    3191
 k-point 26 :  -0.3750 0.1250 0.1250  plane waves:    3200
 k-point 27 :  -0.2500 0.1250 0.1250  plane waves:    3200
 k-point 28 :  -0.1250 0.1250 0.1250  plane waves:    3195
 k-point 29 :   0.2500 0.2500 0.1250  plane waves:    3178
 k-point 30 :   0.3750 0.2500 0.1250  plane waves:    3187
 k-point 31 :   0.5000 0.2500 0.1250  plane waves:    3182
 k-point 32 :  -0.3750 0.2500 0.1250  plane waves:    3197
 k-point 33 :  -0.2500 0.2500 0.1250  plane waves:    3195
 k-point 34 :  -0.1250 0.2500 0.1250  plane waves:    3181
 k-point 35 :   0.3750 0.3750 0.1250  plane waves:    3193
 k-point 36 :   0.5000 0.3750 0.1250  plane waves:    3181
 k-point 37 :  -0.3750 0.3750 0.1250  plane waves:    3190
 k-point 38 :  -0.2500 0.3750 0.1250  plane waves:    3207
 k-point 39 :  -0.1250 0.3750 0.1250  plane waves:    3206
 k-point 40 :   0.5000 0.5000 0.1250  plane waves:    3192
 k-point 41 :  -0.3750 0.5000 0.1250  plane waves:    3193
 k-point 42 :  -0.2500 0.5000 0.1250  plane waves:    3205
 k-point 43 :  -0.1250 0.5000 0.1250  plane waves:    3202
 k-point 44 :  -0.3750-0.3750 0.1250  plane waves:    3193
 k-point 45 :  -0.2500-0.3750 0.1250  plane waves:    3193
 k-point 46 :  -0.2500-0.2500 0.1250  plane waves:    3194
 k-point 47 :   0.2500 0.2500 0.2500  plane waves:    3181
 k-point 48 :   0.3750 0.2500 0.2500  plane waves:    3198
 k-point 49 :   0.5000 0.2500 0.2500  plane waves:    3196
 k-point 50 :  -0.3750 0.2500 0.2500  plane waves:    3199
 k-point 51 :  -0.2500 0.2500 0.2500  plane waves:    3202
 k-point 52 :   0.3750 0.3750 0.2500  plane waves:    3185
 k-point 53 :   0.5000 0.3750 0.2500  plane waves:    3184
 k-point 54 :  -0.3750 0.3750 0.2500  plane waves:    3180
 k-point 55 :  -0.2500 0.3750 0.2500  plane waves:    3202
 k-point 56 :   0.5000 0.5000 0.2500  plane waves:    3176
 k-point 57 :  -0.3750 0.5000 0.2500  plane waves:    3185
 k-point 58 :  -0.2500 0.5000 0.2500  plane waves:    3188
 k-point 59 :  -0.3750-0.3750 0.2500  plane waves:    3195
 k-point 60 :   0.3750 0.3750 0.3750  plane waves:    3172
 k-point 61 :   0.5000 0.3750 0.3750  plane waves:    3186
 k-point 62 :  -0.3750 0.3750 0.3750  plane waves:    3184
 k-point 63 :   0.5000 0.5000 0.3750  plane waves:    3182
 k-point 64 :  -0.3750 0.5000 0.3750  plane waves:    3182
 k-point 65 :   0.5000 0.5000 0.5000  plane waves:    3184

 maximum and minimum number of plane-waves per node :       216      186

 maximum number of plane-waves:      3222
 maximum index in each direction: 
   IXMAX=   17   IYMAX=   17   IZMAX=   17
   IXMIN=  -18   IYMIN=  -18   IZMIN=  -18

 WARNING: aliasing errors must be expected set NGX to  72 to avoid them
 WARNING: aliasing errors must be expected set NGY to  72 to avoid them
 WARNING: aliasing errors must be expected set NGZ to  72 to avoid them
 aliasing errors are usually negligible using standard VASP settings
 and one can safely disregard these warnings

 real space projection operators:
  total allocation   :       6187.09 KBytes
  max/ min on nodes  :        443.95        349.89


 parallel 3D FFT for wavefunctions:
    minimum data exchange during FFTs selected (reduces bandwidth)
 parallel 3D FFT for charge:
    minimum data exchange during FFTs selected (reduces bandwidth)


 total amount of memory used by VASP on root node    48563. kBytes
========================================================================

   base      :      30000. kBytes
   nonlr-proj:       1638. kBytes
   fftplans  :       3114. kBytes
   grid      :       5102. kBytes
   one-center:         15. kBytes
   wavefun   :       8694. kBytes
 
     INWAV:  cpu time    0.0000: real time    0.0001
 Broyden mixing: mesh for mixing (old mesh)
   NGX = 35   NGY = 35   NGZ = 35
  (NGX  =108   NGY  =108   NGZ  =108)
  gives a total of  42875 points

 initial charge density was supplied:
 charge density of overlapping atoms calculated
 number of electron      60.0000000 magnetization 
 keeping initial charge density in first step


--------------------------------------------------------------------------------------------------------


 Maximum index for non-local projection operator          830
 Maximum index for augmentation-charges         2985 (set IRDMAX)


--------------------------------------------------------------------------------------------------------


 First call to EWALD:  gamma=   0.332
 Maximum number of real-space cells 4x 4x 4
 Maximum number of reciprocal cells 5x 5x 5

 FEWALD executed in parallel
    FEWALD:  cpu time    0.0017: real time    0.0017


----------------------------------------- Iteration    1(   1)  ---------------------------------------


    POTLOK:  cpu time    0.0547: real time    0.0547
    SETDIJ:  cpu time    0.0071: real time    0.0070
     EDDAV:  cpu time    6.9984: real time    6.9952
       DOS:  cpu time    0.0071: real time    0.0070
    --------------------------------------------
      LOOP:  cpu time    7.0705: real time    7.1321

 eigenvalue-minimisations  :  6436
 total energy-change (2. order) : 0.4720079E+03  (-0.3861587E+04)
 number of electron      60.0000000 magnetization 
 augmentation part       60.0000000 magnetization 

 Free energy of the ion-electron system (eV)
  ---------------------------------------------------
  alpha Z        PSCENC =       200.51712905
  Ewald energy   TEWEN  =     -5293.13969961
  -Hartree energ DENC   =     -3620.80697434
  -exchange      EXHF   =         0.00000000
  -V(xc)+E(xc)   XCENC  =       227.97019748
  PAW double counting   =      7404.97912102    -7555.84706289
  entropy T*S    EENTRO =        -0.00055203
  eigenvalues    EBANDS =      -939.45181767
  atomic energy  EATOM  =     10047.78760332
  Solvation  Ediel_sol  =         0.00000000
  ---------------------------------------------------
  free energy    TOTEN  =       472.00794434 eV

  energy without entropy =      472.00849636  energy(sigma->0) =      472.00808234


--------------------------------------------------------------------------------------------------------




----------------------------------------- Iteration    1(   2)  ---------------------------------------


     EDDAV:  cpu time    6.9753: real time    6.9728
       DOS:  cpu time    0.0063: real time    0.0063
    --------------------------------------------
      LOOP:  cpu time    6.9817: real time    7.0499

 eigenvalue-minimisations  :  6442
 total energy-change (2. order) :-0.4637217E+03  (-0.4521751E+03)
 number of electron      60.0000000 magnetization 
 augmentation part       60.0000000 magnetization 

 Free energy of the ion-electron system (eV)
  ---------------------------------------------------
  alpha Z        PSCENC =       200.51712905
  Ewald energy   TEWEN  =     -5293.13969961
  -Hartree energ DENC   =     -3620.80697434
  -exchange      EXHF   =         0.00000000
  -V(xc)+E(xc)   XCENC  =       227.97019748
  PAW double counting   =      7404.97912102    -7555.84706289
  entropy T*S    EENTRO =        -0.00038663
  eigenvalues    EBANDS =     -1403.17364055
  atomic energy  EATOM  =     10047.78760332
  Solvation  Ediel_sol  =         0.00000000
  ---------------------------------------------------
  free energy    TOTEN  =         8.28628685 eV

  energy without entropy =        8.28667348  energy(sigma->0) =        8.28638350


--------------------------------------------------------------------------------------------------------




----------------------------------------- Iteration    1(   3)  ---------------------------------------


     EDDAV:  cpu time    6.2780: real time    6.2748
       DOS:  cpu time    0.0063: real time    0.0063
    --------------------------------------------
      LOOP:  cpu time    6.2849: real time    6.3737

 eigenvalue-minimisations  :  5642
 total energy-change (2. order) :-0.2839008E+02  (-0.2789892E+02)
 number of electron      60.0000000 magnetization 
 augmentation part       60.0000000 magnetization 

 Free energy of the ion-electron system (eV)
  ---------------------------------------------------
  alpha Z        PSCENC =       200.51712905
  Ewald energy   TEWEN  =     -5293.13969961
  -Hartree energ DENC   =     -3620.80697434
  -exchange      EXHF   =         0.00000000
  -V(xc)+E(xc)   XCENC  =       227.97019748
  PAW double counting   =      7404.97912102    -7555.84706289
  entropy T*S    EENTRO =        -0.00026749
  eigenvalues    EBANDS =     -1431.56383953
  atomic energy  EATOM  =     10047.78760332
  Solvation  Ediel_sol  =         0.00000000
  ---------------------------------------------------
  free energy    TOTEN  =       -20.10379300 eV

  energy without entropy =      -20.10352551  energy(sigma->0) =      -20.10372613


--------------------------------------------------------------------------------------------------------




----------------------------------------- Iteration    1(   4)  ---------------------------------------


     EDDAV:  cpu time    6.9480: real time    6.9443
       DOS:  cpu time    0.0064: real time    0.0063
    --------------------------------------------
      LOOP:  cpu time    6.9550: real time    7.0318

 eigenvalue-minimisations  :  6418
 total energy-change (2. order) :-0.8787785E+00  (-0.8781374E+00)
 number of electron      60.0000000 magnetization 
 augmentation part       60.0000000 magnetization 

 Free energy of the ion-electron system (eV)
  ---------------------------------------------------
  alpha Z        PSCENC =       200.51712905
  Ewald energy   TEWEN  =     -5293.13969961
  -Hartree energ DENC   =     -3620.80697434
  -exchange      EXHF   =         0.00000000
  -V(xc)+E(xc)   XCENC  =       227.97019748
  PAW double counting   =      7404.97912102    -7555.84706289
  entropy T*S    EENTRO =        -0.00024793
  eigenvalues    EBANDS =     -1432.44263759
  atomic energy  EATOM  =     10047.78760332
  Solvation  Ediel_sol  =         0.00000000
  ---------------------------------------------------
  free energy    TOTEN  =       -20.98257149 eV

  energy without entropy =      -20.98232356  energy(sigma->0) =      -20.98250950


--------------------------------------------------------------------------------------------------------




----------------------------------------- Iteration    1(   5)  ---------------------------------------


     EDDAV:  cpu time    7.7592: real time    7.7558
       DOS:  cpu time    0.0059: real time    0.0059
    CHARGE:  cpu time    0.5322: real time    0.5321
    MIXING:  cpu time    0.0021: real time    0.0022
    --------------------------------------------
      LOOP:  cpu time    8.3001: real time    8.4209

 eigenvalue-minimisations  :  7340
 total energy-change (2. order) :-0.6383241E-01  (-0.6382844E-01)
 number of electron      59.9999965 magnetization 
 augmentation part       11.7715105 magnetization 

 Broyden mixing:
  rms(total) = 0.11015E+01    rms(broyden)= 0.11015E+01
  rms(prec ) = 0.12422E+01
  weight for this iteration     100.00

 Free energy of the ion-electron system (eV)
  ---------------------------------------------------
  alpha Z        PSCENC =       200.51712905
  Ewald energy   TEWEN  =     -5293.13969961
  -Hartree energ DENC   =     -3620.80697434
  -exchange      EXHF   =         0.00000000
  -V(xc)+E(xc)   XCENC  =       227.97019748
  PAW double counting   =      7404.97912102    -7555.84706289
  entropy T*S    EENTRO =        -0.00025491
  eigenvalues    EBANDS =     -1432.50646301
  atomic energy  EATOM  =     10047.78760332
  Solvation  Ediel_sol  =         0.00000000
  ---------------------------------------------------
  free energy    TOTEN  =       -21.04640389 eV

  energy without entropy =      -21.04614898  energy(sigma->0) =      -21.04634016


--------------------------------------------------------------------------------------------------------




----------------------------------------- Iteration    1(   6)  ---------------------------------------


    POTLOK:  cpu time    0.0527: real time    0.0527
    SETDIJ:  cpu time    0.0053: real time    0.0053
     EDDAV:  cpu time    5.9895: real time    5.9863
       DOS:  cpu time    0.0057: real time    0.0057
    CHARGE:  cpu time    0.5097: real time    0.5093
    MIXING:  cpu time    0.0022: real time    0.0022
    --------------------------------------------
      LOOP:  cpu time    6.5658: real time    6.6563

 eigenvalue-minimisations  :  5282
 total energy-change (2. order) : 0.9046369E+00  (-0.2278206E+00)
 number of electron      59.9999965 magnetization 
 augmentation part       11.9310082 magnetization 

 Broyden mixing:
  rms(total) = 0.77304E+00    rms(broyden)= 0.77303E+00
  rms(prec ) = 0.78670E+00
  weight for this iteration     100.00

 eigenvalues of (default mixing * dielectric matrix)
  average eigenvalue GAMMA=   2.4437
  2.4437

 Free energy of the ion-electron system (eV)
  ---------------------------------------------------
  alpha Z        PSCENC =       200.51712905
  Ewald energy   TEWEN  =     -5293.13969961
  -Hartree energ DENC   =     -3596.87916022
  -exchange      EXHF   =         0.00000000
  -V(xc)+E(xc)   XCENC  =       228.08881873
  PAW double counting   =      7321.56560632    -7471.05974332
  entropy T*S    EENTRO =        -0.00004110
  eigenvalues    EBANDS =     -1457.02228019
  atomic energy  EATOM  =     10047.78760332
  Solvation  Ediel_sol  =         0.00000000
  ---------------------------------------------------
  free energy    TOTEN  =       -20.14176700 eV

  energy without entropy =      -20.14172591  energy(sigma->0) =      -20.14175673


--------------------------------------------------------------------------------------------------------




----------------------------------------- Iteration    1(   7)  ---------------------------------------


    POTLOK:  cpu time    0.0523: real time    0.0523
    SETDIJ:  cpu time    0.0053: real time    0.0053
     EDDAV:  cpu time    6.0211: real time    6.0183
       DOS:  cpu time    0.0061: real time    0.0061
    CHARGE:  cpu time    0.5080: real time    0.5078
    MIXING:  cpu time    0.0018: real time    0.0018
    --------------------------------------------
      LOOP:  cpu time    6.5954: real time    6.6857

 eigenvalue-minimisations  :  5330
 total energy-change (2. order) :-0.6621034E-02  (-0.3766119E-01)
 number of electron      59.9999965 magnetization 
 augmentation part       11.9446496 magnetization 

 Broyden mixing:
  rms(total) = 0.33931E+00    rms(broyden)= 0.33931E+00
  rms(prec ) = 0.34417E+00
  weight for this iteration     100.00

 eigenvalues of (default mixing * dielectric matrix)
  average eigenvalue GAMMA=   1.8243
  1.0768  2.5719

 Free energy of the ion-electron system (eV)
  ---------------------------------------------------
  alpha Z        PSCENC =       200.51712905
  Ewald energy   TEWEN  =     -5293.13969961
  -Hartree energ DENC   =     -3594.70393572
  -exchange      EXHF   =         0.00000000
  -V(xc)+E(xc)   XCENC  =       228.23489370
  PAW double counting   =      7345.50100627    -7496.08482871
  entropy T*S    EENTRO =        -0.00042197
  eigenvalues    EBANDS =     -1458.26013438
  atomic energy  EATOM  =     10047.78760332
  Solvation  Ediel_sol  =         0.00000000
  ---------------------------------------------------
  free energy    TOTEN  =       -20.14838804 eV

  energy without entropy =      -20.14796607  energy(sigma->0) =      -20.14828255


--------------------------------------------------------------------------------------------------------




----------------------------------------- Iteration    1(   8)  ---------------------------------------


    POTLOK:  cpu time    0.0522: real time    0.0522
    SETDIJ:  cpu time    0.0053: real time    0.0053
     EDDAV:  cpu time    6.0993: real time    6.0963
       DOS:  cpu time    0.0064: real time    0.0064
    CHARGE:  cpu time    0.5139: real time    0.5137
    MIXING:  cpu time    0.0025: real time    0.0025
    --------------------------------------------
      LOOP:  cpu time    6.6803: real time    6.7689

 eigenvalue-minimisations  :  5402
 total energy-change (2. order) :-0.6589427E-02  (-0.6130343E-02)
 number of electron      59.9999965 magnetization 
 augmentation part       11.9356610 magnetization 

 Broyden mixing:
  rms(total) = 0.22787E-01    rms(broyden)= 0.22786E-01
  rms(prec ) = 0.32225E-01
  weight for this iteration     100.00

 eigenvalues of (default mixing * dielectric matrix)
  average eigenvalue GAMMA=   1.5593
  2.4688  0.9606  1.2486

 Free energy of the ion-electron system (eV)
  ---------------------------------------------------
  alpha Z        PSCENC =       200.51712905
  Ewald energy   TEWEN  =     -5293.13969961
  -Hartree energ DENC   =     -3594.38521965
  -exchange      EXHF   =         0.00000000
  -V(xc)+E(xc)   XCENC  =       228.36324355
  PAW double counting   =      7374.56378419    -7526.24547192
  entropy T*S    EENTRO =        -0.00031155
  eigenvalues    EBANDS =     -1457.61603484
  atomic energy  EATOM  =     10047.78760332
  Solvation  Ediel_sol  =         0.00000000
  ---------------------------------------------------
  free energy    TOTEN  =       -20.15497747 eV

  energy without entropy =      -20.15466592  energy(sigma->0) =      -20.15489958


--------------------------------------------------------------------------------------------------------




----------------------------------------- Iteration    1(   9)  ---------------------------------------


    POTLOK:  cpu time    0.0520: real time    0.0525
    SETDIJ:  cpu time    0.0054: real time    0.0054
     EDDAV:  cpu time    7.4609: real time    7.4571
       DOS:  cpu time    0.0063: real time    0.0063
    CHARGE:  cpu time    0.5088: real time    0.5086
    MIXING:  cpu time    0.0021: real time    0.0021
    --------------------------------------------
      LOOP:  cpu time    8.0367: real time    8.1190

 eigenvalue-minimisations  :  7008
 total energy-change (2. order) : 0.9801058E-03  (-0.6115481E-03)
 number of electron      59.9999965 magnetization 
 augmentation part       11.9263812 magnetization 

 Broyden mixing:
  rms(total) = 0.96059E-02    rms(broyden)= 0.96058E-02
  rms(prec ) = 0.12232E-01
  weight for this iteration     100.00

 eigenvalues of (default mixing * dielectric matrix)
  average eigenvalue GAMMA=   1.5275
  2.5463  1.0120  1.1388  1.4130

 Free energy of the ion-electron system (eV)
  ---------------------------------------------------
  alpha Z        PSCENC =       200.51712905
  Ewald energy   TEWEN  =     -5293.13969961
  -Hartree energ DENC   =     -3594.50600712
  -exchange      EXHF   =         0.00000000
  -V(xc)+E(xc)   XCENC  =       228.35856067
  PAW double counting   =      7378.83897182    -7530.54403735
  entropy T*S    EENTRO =        -0.00023805
  eigenvalues    EBANDS =     -1457.46628009
  atomic energy  EATOM  =     10047.78760332
  Solvation  Ediel_sol  =         0.00000000
  ---------------------------------------------------
  free energy    TOTEN  =       -20.15399736 eV

  energy without entropy =      -20.15375930  energy(sigma->0) =      -20.15393785


--------------------------------------------------------------------------------------------------------




----------------------------------------- Iteration    1(  10)  ---------------------------------------


    POTLOK:  cpu time    0.0526: real time    0.0526
    SETDIJ:  cpu time    0.0054: real time    0.0054
     EDDAV:  cpu time    6.1171: real time    6.1141
       DOS:  cpu time    0.0062: real time    0.0061
    CHARGE:  cpu time    0.5126: real time    0.5124
    MIXING:  cpu time    0.0023: real time    0.0023
    --------------------------------------------
      LOOP:  cpu time    6.6967: real time    6.7922

 eigenvalue-minimisations  :  5432
 total energy-change (2. order) :-0.2715099E-03  (-0.1746900E-03)
 number of electron      59.9999965 magnetization 
 augmentation part       11.9243999 magnetization 

 Broyden mixing:
  rms(total) = 0.40805E-02    rms(broyden)= 0.40805E-02
  rms(prec ) = 0.54595E-02
  weight for this iteration     100.00

 eigenvalues of (default mixing * dielectric matrix)
  average eigenvalue GAMMA=   1.5657
  2.5643  2.0173  0.9786  0.9786  1.2898

 Free energy of the ion-electron system (eV)
  ---------------------------------------------------
  alpha Z        PSCENC =       200.51712905
  Ewald energy   TEWEN  =     -5293.13969961
  -Hartree energ DENC   =     -3594.52128536
  -exchange      EXHF   =         0.00000000
  -V(xc)+E(xc)   XCENC  =       228.36718355
  PAW double counting   =      7379.29404089    -7530.99129036
  entropy T*S    EENTRO =        -0.00025806
  eigenvalues    EBANDS =     -1457.46769230
  atomic energy  EATOM  =     10047.78760332
  Solvation  Ediel_sol  =         0.00000000
  ---------------------------------------------------
  free energy    TOTEN  =       -20.15426887 eV

  energy without entropy =      -20.15401081  energy(sigma->0) =      -20.15420435


--------------------------------------------------------------------------------------------------------




----------------------------------------- Iteration    1(  11)  ---------------------------------------


    POTLOK:  cpu time    0.0519: real time    0.0519
    SETDIJ:  cpu time    0.0053: real time    0.0053
     EDDAV:  cpu time    6.4973: real time    6.4941
       DOS:  cpu time    0.0063: real time    0.0063
    CHARGE:  cpu time    0.5114: real time    0.5111
    MIXING:  cpu time    0.0023: real time    0.0023
    --------------------------------------------
      LOOP:  cpu time    7.0752: real time    7.1659

 eigenvalue-minimisations  :  5864
 total energy-change (2. order) :-0.6109647E-04  (-0.2479820E-04)
 number of electron      59.9999965 magnetization 
 augmentation part       11.9248017 magnetization 

 Broyden mixing:
  rms(total) = 0.13133E-02    rms(broyden)= 0.13133E-02
  rms(prec ) = 0.17123E-02
  weight for this iteration     100.00

 eigenvalues of (default mixing * dielectric matrix)
  average eigenvalue GAMMA=   1.5784
  2.6997  2.3722  0.9706  0.9706  1.2286  1.2286

 Free energy of the ion-electron system (eV)
  ---------------------------------------------------
  alpha Z        PSCENC =       200.51712905
  Ewald energy   TEWEN  =     -5293.13969961
  -Hartree energ DENC   =     -3594.39809104
  -exchange      EXHF   =         0.00000000
  -V(xc)+E(xc)   XCENC  =       228.37119800
  PAW double counting   =      7378.72114219    -7530.38324372
  entropy T*S    EENTRO =        -0.00025938
  eigenvalues    EBANDS =     -1457.63010879
  atomic energy  EATOM  =     10047.78760332
  Solvation  Ediel_sol  =         0.00000000
  ---------------------------------------------------
  free energy    TOTEN  =       -20.15432997 eV

  energy without entropy =      -20.15407059  energy(sigma->0) =      -20.15426512


--------------------------------------------------------------------------------------------------------




----------------------------------------- Iteration    1(  12)  ---------------------------------------


    POTLOK:  cpu time    0.0521: real time    0.0521
    SETDIJ:  cpu time    0.0053: real time    0.0053
     EDDAV:  cpu time    7.5110: real time    7.5072
       DOS:  cpu time    0.0063: real time    0.0063
    CHARGE:  cpu time    0.5080: real time    0.5078
    MIXING:  cpu time    0.0026: real time    0.0026
    --------------------------------------------
      LOOP:  cpu time    8.0858: real time    8.1711

 eigenvalue-minimisations  :  7036
 total energy-change (2. order) :-0.1242631E-04  (-0.4329000E-05)
 number of electron      59.9999965 magnetization 
 augmentation part       11.9240938 magnetization 

 Broyden mixing:
  rms(total) = 0.54244E-03    rms(broyden)= 0.54242E-03
  rms(prec ) = 0.69210E-03
  weight for this iteration     100.00

 eigenvalues of (default mixing * dielectric matrix)
  average eigenvalue GAMMA=   1.6211
  2.8600  2.6210  1.6755  0.9918  0.9918  1.1040  1.1040

 Free energy of the ion-electron system (eV)
  ---------------------------------------------------
  alpha Z        PSCENC =       200.51712905
  Ewald energy   TEWEN  =     -5293.13969961
  -Hartree energ DENC   =     -3594.47215352
  -exchange      EXHF   =         0.00000000
  -V(xc)+E(xc)   XCENC  =       228.37368086
  PAW double counting   =      7379.14634845    -7530.81171011
  entropy T*S    EENTRO =        -0.00025616
  eigenvalues    EBANDS =     -1457.55528468
  atomic energy  EATOM  =     10047.78760332
  Solvation  Ediel_sol  =         0.00000000
  ---------------------------------------------------
  free energy    TOTEN  =       -20.15434239 eV

  energy without entropy =      -20.15408623  energy(sigma->0) =      -20.15427835


--------------------------------------------------------------------------------------------------------




----------------------------------------- Iteration    1(  13)  ---------------------------------------


    POTLOK:  cpu time    0.0523: real time    0.0523
    SETDIJ:  cpu time    0.0053: real time    0.0053
     EDDAV:  cpu time    6.3199: real time    6.3171
       DOS:  cpu time    0.0063: real time    0.0063
    --------------------------------------------
      LOOP:  cpu time    6.3844: real time    6.4892

 eigenvalue-minimisations  :  5674
 total energy-change (2. order) :-0.4561953E-06  (-0.4774232E-06)
 number of electron      59.9999965 magnetization 
 augmentation part       11.9240938 magnetization 

 Free energy of the ion-electron system (eV)
  ---------------------------------------------------
  alpha Z        PSCENC =       200.51712905
  Ewald energy   TEWEN  =     -5293.13969961
  -Hartree energ DENC   =     -3594.51306752
  -exchange      EXHF   =         0.00000000
  -V(xc)+E(xc)   XCENC  =       228.37501208
  PAW double counting   =      7379.11709023    -7530.78142235
  entropy T*S    EENTRO =        -0.00025571
  eigenvalues    EBANDS =     -1457.51673233
  atomic energy  EATOM  =     10047.78760332
  Solvation  Ediel_sol  =         0.00000000
  ---------------------------------------------------
  free energy    TOTEN  =       -20.15434285 eV

  energy without entropy =      -20.15408713  energy(sigma->0) =      -20.15427892


--------------------------------------------------------------------------------------------------------




 average (electrostatic) potential at core
  the test charge radii are     1.0856  1.0808
  (the norm of the test charge is              1.0000)
       1-128.7842       2-128.7842       3 -53.5577       4 -53.6608       5 -53.6608
 
 
 
 E-fermi :   4.2383     XC(G=0):  -9.2517     alpha+bet : -9.5822


 k-point     1 :       0.0000    0.0000    0.0000
  band No.  band energies     occupation 
      1     -87.3381      2.00000
      2     -87.3378      2.00000
      3     -87.3374      2.00000
      4     -87.3374      2.00000
      5     -87.3372      2.00000
      6     -87.3372      2.00000
      7     -18.6618      2.00000
      8     -18.6618      2.00000
      9     -18.6606      2.00000
     10     -18.6606      2.00000
     11     -18.6561      2.00000
     12     -18.6542      2.00000
     13     -18.6450      2.00000
     14     -18.6450      2.00000
     15     -18.6429      2.00000
     16     -18.6429      2.00000
     17      -9.6790      2.00000
     18      -9.0694      2.00000
     19      -8.1259      2.00000
     20      -5.1298      2.00000
     21      -4.2910      2.00000
     22       2.3786      2.00000
     23       2.4720      2.00000
     24       2.6496      2.00000
     25       2.6496      2.00000
     26       2.7646      2.00000
     27       2.7646      2.00000
     28       3.2796      2.00000
     29       3.2796      2.00000
     30       4.2264      1.12531
     31       4.6683      0.00905
     32       5.8994      0.00000
     33       5.8994      0.00000
     34       6.5035      0.00000
     35       7.0447      0.00000
     36       7.0447      0.00000
     37      10.3589      0.00000
     38      11.1305      0.00000

 k-point     2 :       0.1250   -0.0000    0.0000
  band No.  band energies     occupation 
      1     -87.3382      2.00000
      2     -87.3380      2.00000
      3     -87.3375      2.00000
      4     -87.3375      2.00000
      5     -87.3374      2.00000
      6     -87.3374      2.00000
      7     -18.6635      2.00000
      8     -18.6620      2.00000
      9     -18.6587      2.00000
     10     -18.6576      2.00000
     11     -18.6543      2.00000
     12     -18.6522      2.00000
     13     -18.6471      2.00000
     14     -18.6457      2.00000
     15     -18.6447      2.00000
     16     -18.6431      2.00000
     17      -9.5440      2.00000
     18      -8.9509      2.00000
     19      -8.0555      2.00000
     20      -5.2039      2.00000
     21      -4.4653      2.00000
     22       1.5732      2.00000
     23       1.7566      2.00000
     24       2.2379      2.00000
     25       2.2700      2.00000
     26       2.7347      2.00000
     27       3.1136      2.00000
     28       3.2270      2.00000
     29       3.4521      2.00000
     30       3.7594      1.99441
     31       5.4850      0.00000
     32       6.1287      0.00000
     33       6.2588      0.00000
     34       6.5128      0.00000
     35       7.1195      0.00000
     36       7.3630      0.00000
     37      10.0689      0.00000
     38      10.6218      0.00000

 k-point     3 :       0.2500   -0.0000    0.0000
  band No.  band energies     occupation 
      1     -87.3381      2.00000
      2     -87.3381      2.00000
      3     -87.3376      2.00000
      4     -87.3375      2.00000
      5     -87.3375      2.00000
      6     -87.3374      2.00000
      7     -18.6686      2.00000
      8     -18.6661      2.00000
      9     -18.6534      2.00000
     10     -18.6516      2.00000
     11     -18.6503      2.00000
     12     -18.6498      2.00000
     13     -18.6479      2.00000
     14     -18.6460      2.00000
     15     -18.6452      2.00000
     16     -18.6429      2.00000
     17      -9.1530      2.00000
     18      -8.6238      2.00000
     19      -7.8825      2.00000
     20      -5.4830      2.00000
     21      -4.9390      2.00000
     22       0.4972      2.00000
     23       1.1143      2.00000
     24       1.4818      2.00000
     25       1.7389      2.00000
     26       2.2418      2.00000
     27       2.7632      2.00000
     28       3.2282      2.00000
     29       3.2626      2.00000
     30       3.8476      1.99043
     31       5.5831      0.00000
     32       6.3869      0.00000
     33       6.5722      0.00000
     34       7.1398      0.00000
     35       7.5691      0.00000
     36       8.3209      0.00000
     37       9.1789      0.00000
     38      10.7571      0.00000

 k-point     4 :       0.3750    0.0000    0.0000
  band No.  band energies     occupation 
      1     -87.3382      2.00000
      2     -87.3379      2.00000
      3     -87.3379      2.00000
      4     -87.3378      2.00000
      5     -87.3377      2.00000
      6     -87.3375      2.00000
      7     -18.6748      2.00000
      8     -18.6712      2.00000
      9     -18.6571      2.00000
     10     -18.6529      2.00000
     11     -18.6500      2.00000
     12     -18.6468      2.00000
     13     -18.6426      2.00000
     14     -18.6403      2.00000
     15     -18.6400      2.00000
     16     -18.6396      2.00000
     17      -8.5652      2.00000
     18      -8.2070      2.00000
     19      -7.7461      2.00000
     20      -5.9700      2.00000
     21      -5.5137      2.00000
     22      -0.3592      2.00000
     23       0.8744      2.00000
     24       1.2506      2.00000
     25       1.3779      2.00000
     26       1.8433      2.00000
     27       2.0082      2.00000
     28       2.8923      2.00000
     29       3.2366      2.00000
     30       3.7383      1.99585
     31       5.4155      0.00000
     32       6.5157      0.00000
     33       6.9152      0.00000
     34       7.4385      0.00000
     35       8.1563      0.00000
     36       8.6888      0.00000
     37       8.7671      0.00000
     38      10.8911      0.00000

 k-point     5 :       0.5000   -0.0000    0.0000
  band No.  band energies     occupation 
      1     -87.3384      2.00000
      2     -87.3384      2.00000
      3     -87.3382      2.00000
      4     -87.3381      2.00000
      5     -87.3377      2.00000
      6     -87.3376      2.00000
      7     -18.6775      2.00000
      8     -18.6735      2.00000
      9     -18.6586      2.00000
     10     -18.6544      2.00000
     11     -18.6506      2.00000
     12     -18.6466      2.00000
     13     -18.6405      2.00000
     14     -18.6378      2.00000
     15     -18.6374      2.00000
     16     -18.6367      2.00000
     17      -8.0034      2.00000
     18      -7.9624      2.00000
     19      -7.9551      2.00000
     20      -6.2220      2.00000
     21      -5.8419      2.00000
     22      -0.6716      2.00000
     23       1.0388      2.00000
     24       1.0445      2.00000
     25       1.2480      2.00000
     26       1.7002      2.00000
     27       1.7552      2.00000
     28       2.5760      2.00000
     29       3.2158      2.00000
     30       3.7210      1.99685
     31       5.3385      0.00000
     32       6.4641      0.00000
     33       7.3059      0.00000
     34       7.3932      0.00000
     35       8.3759      0.00000
     36       8.5771      0.00000
     37       8.6079      0.00000
     38      10.6960      0.00000

 k-point     6 :       0.1250    0.1250    0.0000
  band No.  band energies     occupation 
      1     -87.3381      2.00000
      2     -87.3379      2.00000
      3     -87.3376      2.00000
      4     -87.3374      2.00000
      5     -87.3374      2.00000
      6     -87.3372      2.00000
      7     -18.6635      2.00000
      8     -18.6619      2.00000
      9     -18.6586      2.00000
     10     -18.6575      2.00000
     11     -18.6543      2.00000
     12     -18.6522      2.00000
     13     -18.6471      2.00000
     14     -18.6456      2.00000
     15     -18.6447      2.00000
     16     -18.6429      2.00000
     17      -9.5411      2.00000
     18      -8.9588      2.00000
     19      -8.0483      2.00000
     20      -5.2115      2.00000
     21      -4.4606      2.00000
     22       1.5903      2.00000
     23       1.8045      2.00000
     24       2.2335      2.00000
     25       2.2394      2.00000
     26       2.7356      2.00000
     27       2.8733      2.00000
     28       3.2376      2.00000
     29       3.6453      1.99930
     30       3.8431      1.99026
     31       5.3994      0.00000
     32       6.0262      0.00000
     33       6.1911      0.00000
     34       6.5990      0.00000
     35       7.1980      0.00000
     36       7.4088      0.00000
     37      10.1464      0.00000
     38      10.5325      0.00000

 k-point     7 :       0.2500    0.1250    0.0000
  band No.  band energies     occupation 
      1     -87.3382      2.00000
      2     -87.3380      2.00000
      3     -87.3377      2.00000
      4     -87.3376      2.00000
      5     -87.3376      2.00000
      6     -87.3374      2.00000
      7     -18.6655      2.00000
      8     -18.6636      2.00000
      9     -18.6555      2.00000
     10     -18.6554      2.00000
     11     -18.6506      2.00000
     12     -18.6503      2.00000
     13     -18.6476      2.00000
     14     -18.6466      2.00000
     15     -18.6459      2.00000
     16     -18.6432      2.00000
     17      -9.2754      2.00000
     18      -8.7405      2.00000
     19      -7.9212      2.00000
     20      -5.3794      2.00000
     21      -4.7994      2.00000
     22       0.9466      2.00000
     23       1.1553      2.00000
     24       1.5257      2.00000
     25       2.0023      2.00000
     26       2.2789      2.00000
     27       2.4817      2.00000
     28       3.3429      2.00000
     29       3.7462      1.99533
     30       3.8784      1.99429
     31       5.6832      0.00000
     32       5.9783      0.00000
     33       6.4160      0.00000
     34       7.1716      0.00000
     35       7.6581      0.00000
     36       7.9391      0.00000
     37       9.8599      0.00000
     38       9.9455      0.00000

 k-point     8 :       0.3750    0.1250    0.0000
  band No.  band energies     occupation 
      1     -87.3382      2.00000
      2     -87.3381      2.00000
      3     -87.3375      2.00000
      4     -87.3375      2.00000
      5     -87.3375      2.00000
      6     -87.3374      2.00000
      7     -18.6696      2.00000
      8     -18.6668      2.00000
      9     -18.6543      2.00000
     10     -18.6526      2.00000
     11     -18.6510      2.00000
     12     -18.6499      2.00000
     13     -18.6469      2.00000
     14     -18.6450      2.00000
     15     -18.6411      2.00000
     16     -18.6394      2.00000
     17      -8.7804      2.00000
     18      -8.3584      2.00000
     19      -7.7510      2.00000
     20      -5.7549      2.00000
     21      -5.3655      2.00000
     22       0.1347      2.00000
     23       0.6231      2.00000
     24       1.0993      2.00000
     25       1.4213      2.00000
     26       1.7687      2.00000
     27       2.4579      2.00000
     28       3.1678      2.00000
     29       3.2620      2.00000
     30       3.7070      1.99753
     31       6.0008      0.00000
     32       6.3410      0.00000
     33       6.6447      0.00000
     34       7.4349      0.00000
     35       8.0523      0.00000
     36       8.6733      0.00000
     37       9.3053      0.00000
     38      10.5131      0.00000

 k-point     9 :       0.5000    0.1250    0.0000
  band No.  band energies     occupation 
      1     -87.3383      2.00000
      2     -87.3381      2.00000
      3     -87.3380      2.00000
      4     -87.3379      2.00000
      5     -87.3376      2.00000
      6     -87.3375      2.00000
      7     -18.6737      2.00000
      8     -18.6701      2.00000
      9     -18.6565      2.00000
     10     -18.6531      2.00000
     11     -18.6520      2.00000
     12     -18.6482      2.00000
     13     -18.6424      2.00000
     14     -18.6404      2.00000
     15     -18.6389      2.00000
     16     -18.6372      2.00000
     17      -8.1670      2.00000
     18      -7.9972      2.00000
     19      -7.7455      2.00000
     20      -6.1789      2.00000
     21      -5.8740      2.00000
     22      -0.4779      2.00000
     23       0.5842      2.00000
     24       0.8364      2.00000
     25       1.0355      2.00000
     26       1.9106      2.00000
     27       2.2172      2.00000
     28       2.7047      2.00000
     29       2.8700      2.00000
     30       3.5038      1.99999
     31       6.1225      0.00000
     32       6.6194      0.00000
     33       7.0462      0.00000
     34       7.7467      0.00000
     35       7.9049      0.00000
     36       8.7781      0.00000
     37       9.1245      0.00000
     38      10.5280      0.00000

 k-point    10 :      -0.3750    0.1250    0.0000
  band No.  band energies     occupation 
      1     -87.3383      2.00000
      2     -87.3381      2.00000
      3     -87.3380      2.00000
      4     -87.3379      2.00000
      5     -87.3375      2.00000
      6     -87.3375      2.00000
      7     -18.6737      2.00000
      8     -18.6701      2.00000
      9     -18.6565      2.00000
     10     -18.6531      2.00000
     11     -18.6520      2.00000
     12     -18.6481      2.00000
     13     -18.6423      2.00000
     14     -18.6404      2.00000
     15     -18.6390      2.00000
     16     -18.6372      2.00000
     17      -8.1846      2.00000
     18      -7.9652      2.00000
     19      -7.7581      2.00000
     20      -6.1937      2.00000
     21      -5.8606      2.00000
     22      -0.5153      2.00000
     23       0.6205      2.00000
     24       0.8490      2.00000
     25       1.1788      2.00000
     26       1.7446      2.00000
     27       2.2305      2.00000
     28       2.5415      2.00000
     29       3.0028      2.00000
     30       3.5110      1.99998
     31       6.1090      0.00000
     32       6.5557      0.00000
     33       7.2846      0.00000
     34       7.6729      0.00000
     35       8.0087      0.00000
     36       8.5993      0.00000
     37       9.0406      0.00000
     38      10.7335      0.00000

 k-point    11 :      -0.2500    0.1250    0.0000
  band No.  band energies     occupation 
      1     -87.3382      2.00000
      2     -87.3380      2.00000
      3     -87.3376      2.00000
      4     -87.3375      2.00000
      5     -87.3374      2.00000
      6     -87.3374      2.00000
      7     -18.6696      2.00000
      8     -18.6668      2.00000
      9     -18.6542      2.00000
     10     -18.6525      2.00000
     11     -18.6510      2.00000
     12     -18.6499      2.00000
     13     -18.6469      2.00000
     14     -18.6449      2.00000
     15     -18.6411      2.00000
     16     -18.6394      2.00000
     17      -8.7949      2.00000
     18      -8.3192      2.00000
     19      -7.7823      2.00000
     20      -5.7320      2.00000
     21      -5.3818      2.00000
     22       0.0553      2.00000
     23       0.7175      2.00000
     24       1.2728      2.00000
     25       1.4686      2.00000
     26       1.5766      2.00000
     27       2.3135      2.00000
     28       3.0926      2.00000
     29       3.4499      2.00000
     30       3.6904      1.99819
     31       6.0064      0.00000
     32       6.2155      0.00000
     33       6.7588      0.00000
     34       7.5108      0.00000
     35       8.1455      0.00000
     36       8.5339      0.00000
     37       9.2200      0.00000
     38      10.4880      0.00000

 k-point    12 :      -0.1250    0.1250    0.0000
  band No.  band energies     occupation 
      1     -87.3381      2.00000
      2     -87.3381      2.00000
      3     -87.3377      2.00000
      4     -87.3377      2.00000
      5     -87.3375      2.00000
[...]
     28       3.0341      2.00000
     29       3.3947      2.00000
     30       3.6280      1.99953
     31       6.1412      0.00000
     32       6.4801      0.00000
     33       6.7677      0.00000
     34       7.7046      0.00000
     35       8.5822      0.00000
     36       8.8414      0.00000
     37      10.2191      0.00000
     38      10.2937      0.00000

 k-point    59 :      -0.3750   -0.3750    0.2500
  band No.  band energies     occupation 
      1     -87.3382      2.00000
      2     -87.3380      2.00000
      3     -87.3378      2.00000
      4     -87.3377      2.00000
      5     -87.3376      2.00000
      6     -87.3375      2.00000
      7     -18.6746      2.00000
      8     -18.6710      2.00000
      9     -18.6572      2.00000
     10     -18.6530      2.00000
     11     -18.6500      2.00000
     12     -18.6468      2.00000
     13     -18.6423      2.00000
     14     -18.6405      2.00000
     15     -18.6399      2.00000
     16     -18.6396      2.00000
     17      -8.5204      2.00000
     18      -8.2859      2.00000
     19      -7.7161      2.00000
     20      -5.9158      2.00000
     21      -5.5660      2.00000
     22      -0.2364      2.00000
     23       0.5419      2.00000
     24       1.2659      2.00000
     25       1.3220      2.00000
     26       1.9632      2.00000
     27       2.1935      2.00000
     28       3.1155      2.00000
     29       3.1340      2.00000
     30       3.5860      1.99984
     31       5.5707      0.00000
     32       6.4998      0.00000
     33       6.6381      0.00000
     34       7.3696      0.00000
     35       8.0719      0.00000
     36       8.7789      0.00000
     37       9.0764      0.00000
     38      10.6740      0.00000

 k-point    60 :       0.3750    0.3750    0.3750
  band No.  band energies     occupation 
      1     -87.3383      2.00000
      2     -87.3376      2.00000
      3     -87.3375      2.00000
      4     -87.3375      2.00000
      5     -87.3372      2.00000
      6     -87.3372      2.00000
      7     -18.6620      2.00000
      8     -18.6620      2.00000
      9     -18.6605      2.00000
     10     -18.6605      2.00000
     11     -18.6560      2.00000
     12     -18.6543      2.00000
     13     -18.6450      2.00000
     14     -18.6450      2.00000
     15     -18.6429      2.00000
     16     -18.6429      2.00000
     17      -9.6155      2.00000
     18      -9.2154      2.00000
     19      -7.9887      2.00000
     20      -5.3492      2.00000
     21      -4.1025      2.00000
     22       2.0107      2.00000
     23       2.6024      2.00000
     24       2.6024      2.00000
     25       2.8713      2.00000
     26       2.8713      2.00000
     27       2.9209      2.00000
     28       3.1994      2.00000
     29       3.1994      2.00000
     30       3.9424      2.02494
     31       4.9023      0.00012
     32       6.0411      0.00000
     33       6.0411      0.00000
     34       6.4485      0.00000
     35       6.8863      0.00000
     36       6.8863      0.00000
     37      10.3564      0.00000
     38      11.2129      0.00000

 k-point    61 :       0.5000    0.3750    0.3750
  band No.  band energies     occupation 
      1     -87.3381      2.00000
      2     -87.3378      2.00000
      3     -87.3377      2.00000
      4     -87.3376      2.00000
      5     -87.3375      2.00000
      6     -87.3374      2.00000
      7     -18.6636      2.00000
      8     -18.6620      2.00000
      9     -18.6587      2.00000
     10     -18.6576      2.00000
     11     -18.6542      2.00000
     12     -18.6522      2.00000
     13     -18.6471      2.00000
     14     -18.6457      2.00000
     15     -18.6448      2.00000
     16     -18.6430      2.00000
     17      -9.4745      2.00000
     18      -9.1065      2.00000
     19      -7.9163      2.00000
     20      -5.4015      2.00000
     21      -4.3099      2.00000
     22       1.4847      2.00000
     23       1.9485      2.00000
     24       2.3111      2.00000
     25       2.3212      2.00000
     26       2.5704      2.00000
     27       2.6590      2.00000
     28       3.3397      2.00000
     29       3.6280      1.99953
     30       3.9720      2.05050
     31       5.3280      0.00000
     32       5.9601      0.00000
     33       6.2019      0.00000
     34       6.7552      0.00000
     35       7.1446      0.00000
     36       7.3934      0.00000
     37      10.1444      0.00000
     38      10.7231      0.00000

 k-point    62 :      -0.3750    0.3750    0.3750
  band No.  band energies     occupation 
      1     -87.3382      2.00000
      2     -87.3379      2.00000
      3     -87.3378      2.00000
      4     -87.3375      2.00000
      5     -87.3375      2.00000
      6     -87.3373      2.00000
      7     -18.6687      2.00000
      8     -18.6661      2.00000
      9     -18.6534      2.00000
     10     -18.6515      2.00000
     11     -18.6503      2.00000
     12     -18.6497      2.00000
     13     -18.6477      2.00000
     14     -18.6460      2.00000
     15     -18.6451      2.00000
     16     -18.6430      2.00000
     17      -9.0856      2.00000
     18      -8.7681      2.00000
     19      -7.7727      2.00000
     20      -5.5673      2.00000
     21      -4.8916      2.00000
     22       0.3852      2.00000
     23       1.2139      2.00000
     24       1.7509      2.00000
     25       1.7660      2.00000
     26       2.2086      2.00000
     27       2.4764      2.00000
     28       3.0798      2.00000
     29       3.3048      2.00000
     30       3.9947      2.07218
     31       5.4142      0.00000
     32       6.4136      0.00000
     33       6.7569      0.00000
     34       7.2264      0.00000
     35       7.7578      0.00000
     36       7.9953      0.00000
     37       9.3516      0.00000
     38      10.8397      0.00000

 k-point    63 :       0.5000    0.5000    0.3750
  band No.  band energies     occupation 
      1     -87.3382      2.00000
      2     -87.3377      2.00000
      3     -87.3377      2.00000
      4     -87.3376      2.00000
      5     -87.3375      2.00000
      6     -87.3372      2.00000
      7     -18.6636      2.00000
      8     -18.6620      2.00000
      9     -18.6587      2.00000
     10     -18.6575      2.00000
     11     -18.6542      2.00000
     12     -18.6522      2.00000
     13     -18.6471      2.00000
     14     -18.6455      2.00000
     15     -18.6447      2.00000
     16     -18.6431      2.00000
     17      -9.4697      2.00000
     18      -9.1150      2.00000
     19      -7.9100      2.00000
     20      -5.4076      2.00000
     21      -4.3070      2.00000
     22       1.4997      2.00000
     23       2.0511      2.00000
     24       2.3038      2.00000
     25       2.3080      2.00000
     26       2.4530      2.00000
     27       2.5758      2.00000
     28       3.3491      2.00000
     29       3.7043      1.99765
     30       4.0846      2.07224
     31       5.2248      0.00000
     32       5.9061      0.00000
     33       6.1390      0.00000
     34       6.7922      0.00000
     35       7.2177      0.00000
     36       7.4419      0.00000
     37      10.2293      0.00000
     38      10.5950      0.00000

 k-point    64 :      -0.3750    0.5000    0.3750
  band No.  band energies     occupation 
      1     -87.3381      2.00000
      2     -87.3378      2.00000
      3     -87.3376      2.00000
      4     -87.3375      2.00000
      5     -87.3375      2.00000
      6     -87.3374      2.00000
      7     -18.6656      2.00000
      8     -18.6635      2.00000
      9     -18.6556      2.00000
     10     -18.6553      2.00000
     11     -18.6505      2.00000
     12     -18.6502      2.00000
     13     -18.6475      2.00000
     14     -18.6465      2.00000
     15     -18.6458      2.00000
     16     -18.6430      2.00000
     17      -9.2093      2.00000
     18      -8.8811      2.00000
     19      -7.8083      2.00000
     20      -5.5027      2.00000
     21      -4.7145      2.00000
     22       0.7751      2.00000
     23       1.1286      2.00000
     24       1.7967      2.00000
     25       2.1492      2.00000
     26       2.4158      2.00000
     27       2.7144      2.00000
     28       2.8024      2.00000
     29       3.5157      1.99998
     30       3.7346      1.99607
     31       5.9575      0.00000
     32       6.3441      0.00000
     33       6.4949      0.00000
     34       7.0882      0.00000
     35       7.5777      0.00000
     36       7.6567      0.00000
     37      10.0054      0.00000
     38      10.3199      0.00000

 k-point    65 :       0.5000    0.5000    0.5000
  band No.  band energies     occupation 
      1     -87.3384      2.00000
      2     -87.3381      2.00000
      3     -87.3375      2.00000
      4     -87.3375      2.00000
      5     -87.3372      2.00000
      6     -87.3372      2.00000
      7     -18.6619      2.00000
      8     -18.6619      2.00000
      9     -18.6605      2.00000
     10     -18.6605      2.00000
     11     -18.6561      2.00000
     12     -18.6542      2.00000
     13     -18.6451      2.00000
     14     -18.6451      2.00000
     15     -18.6430      2.00000
     16     -18.6430      2.00000
     17      -9.6008      2.00000
     18      -9.2424      2.00000
     19      -7.9666      2.00000
     20      -5.3817      2.00000
     21      -4.0759      2.00000
     22       1.9777      2.00000
     23       2.5972      2.00000
     24       2.5972      2.00000
     25       2.8905      2.00000
     26       2.8905      2.00000
     27       2.9735      2.00000
     28       3.1820      2.00000
     29       3.1820      2.00000
     30       3.8979      1.99989
     31       4.9332      0.00005
     32       6.0704      0.00000
     33       6.0704      0.00000
     34       6.4381      0.00000
     35       6.8542      0.00000
     36       6.8542      0.00000
     37      10.3485      0.00000
     38      11.2357      0.00000


--------------------------------------------------------------------------------------------------------


 soft charge-density along one line, spin component           1
         0         1         2         3         4         5         6         7         8         9
 total charge-density along one line
 
 pseudopotential strength for first ion, spin component:           1
-64.799  -0.000  -0.000  12.034   0.000   0.000  -0.009  -0.042
 -0.000 -64.800  -0.000   0.000  12.034   0.000  -0.002  -0.007
 -0.000  -0.000 -64.799   0.000   0.000  12.034   0.002  -0.002
 12.034   0.000   0.000   4.119  -0.000  -0.000   0.002   0.008
  0.000  12.034   0.000  -0.000   4.119  -0.000   0.000   0.001
  0.000   0.000  12.034  -0.000  -0.000   4.119   0.000   0.000
 -0.009  -0.002   0.002   0.002   0.000   0.000 -17.231   0.001
 -0.042  -0.007  -0.002   0.008   0.001   0.000   0.001 -17.228
  0.002  -0.060   0.003  -0.000   0.010  -0.001  -0.002  -0.001
 -0.002  -0.012  -0.044   0.000   0.002   0.008   0.004  -0.002
  0.012  -0.001  -0.009  -0.002   0.000   0.002   0.002   0.004
 -0.008  -0.002   0.002   0.002   0.000   0.000 -16.738   0.000
 -0.040  -0.007  -0.002   0.007   0.001   0.000   0.000 -16.735
  0.002  -0.056   0.003  -0.000   0.009  -0.001  -0.002  -0.001
 -0.002  -0.012  -0.042   0.000   0.002   0.007   0.004  -0.002
  0.012  -0.001  -0.009  -0.001   0.000   0.002   0.002   0.004
  0.004   0.033   0.007   0.001   0.006   0.001  -0.000  -0.000
 -0.006  -0.047  -0.010  -0.001  -0.008  -0.002   0.000   0.000
 total augmentation occupancy for first ion, spin component:           1
  2.000  -0.000  -0.000   0.003   0.000   0.000   0.002   0.010  -0.001  -0.000   0.000  -0.002  -0.010   0.001   0.000  -0.000
 -0.000   2.000  -0.000   0.000   0.003   0.000  -0.000   0.001   0.009   0.001  -0.000   0.000  -0.001  -0.009  -0.001   0.000
 -0.000  -0.000   2.000   0.000   0.000   0.003   0.003  -0.000  -0.002   0.009   0.002  -0.003   0.000   0.002  -0.010  -0.002
  0.003   0.000   0.000   0.756  -0.000  -0.000  -0.084  -0.404   0.078   0.088  -0.269   0.084   0.402  -0.077  -0.087   0.264
  0.000   0.003   0.000  -0.000   0.753  -0.001   0.088   0.049   0.042   0.083   0.048  -0.087  -0.048  -0.036  -0.081  -0.047
  0.000   0.000   0.003  -0.000  -0.001   0.756  -0.355   0.088   0.131  -0.308  -0.061   0.350  -0.087  -0.130   0.307   0.061
  0.002  -0.000   0.003  -0.084   0.088  -0.355   4.727   0.201  -0.700   1.509   0.644  -2.701  -0.198   0.695  -1.499  -0.640
  0.010   0.001  -0.000  -0.404   0.049   0.088   0.201   5.648  -0.319  -0.810   1.334  -0.198  -3.610   0.316   0.805  -1.326
 -0.001   0.009  -0.002   0.078   0.042   0.131  -0.700  -0.319   3.348  -0.536  -0.381   0.695   0.316  -1.326   0.533   0.379
 -0.000   0.001   0.009   0.088   0.083  -0.308   1.509  -0.810  -0.536   4.765   0.094  -1.499   0.805   0.533  -2.734  -0.093
  0.000  -0.000   0.002  -0.269   0.048  -0.061   0.644   1.334  -0.381   0.094   3.895  -0.640  -1.326   0.379  -0.093  -1.875
 -0.002   0.000  -0.003   0.084  -0.087   0.350  -2.701  -0.198   0.695  -1.499  -0.640   2.673   0.196  -0.690   1.488   0.635
 -0.010  -0.001   0.000   0.402  -0.048  -0.087  -0.198  -3.610   0.316   0.805  -1.326   0.196   3.571  -0.314  -0.799   1.317
  0.001  -0.009   0.002  -0.077  -0.036  -0.130   0.695   0.316  -1.326   0.533   0.379  -0.690  -0.314   1.302  -0.529  -0.376
  0.000  -0.001  -0.010  -0.087  -0.081   0.307  -1.499   0.805   0.533  -2.734  -0.093   1.488  -0.799  -0.529   2.700   0.091
 -0.000   0.000  -0.002   0.264  -0.047   0.061  -0.640  -1.326   0.379  -0.093  -1.875   0.635   1.317  -0.376   0.091   1.852
  0.000   0.000   0.000  -0.007  -0.053  -0.011   0.001   0.006   0.026   0.009   0.001  -0.001  -0.006  -0.026  -0.010  -0.001
 -0.000  -0.000  -0.000   0.003   0.028   0.006   0.000   0.000   0.002   0.001   0.000  -0.000  -0.001  -0.002  -0.001  -0.000


------------------------ aborting loop because EDIFF is reached ----------------------------------------


    CHARGE:  cpu time    0.5084: real time    0.5081
    FORLOC:  cpu time    0.0047: real time    0.0047
    FORNL :  cpu time    1.7344: real time    1.7336
    STRESS:  cpu time    5.1996: real time    5.1969
    FORCOR:  cpu time    0.0566: real time    0.0566
    FORHAR:  cpu time    0.0150: real time    0.0150
    MIXING:  cpu time    0.0028: real time    0.0028
    OFIELD:  cpu time    0.0000: real time    0.0000

  FORCE on cell =-STRESS in cart. coord.  units (eV):
  Direction    XX          YY          ZZ          XY          YZ          ZX
  --------------------------------------------------------------------------------------
  Alpha Z   200.51713   200.51713   200.51713
  Ewald   -1306.13738 -1264.46837 -2722.53592   -38.25831  -183.45873  -308.80455
  Hartree  1595.06678  1631.15733   368.28322   -33.13669  -158.89882  -267.46458
  E(xc)    -308.33094  -308.33014  -308.35805    -0.00073    -0.00351    -0.00591
  Local   -1952.98862 -2030.72280   689.34483    71.37217   342.24762   576.08414
  n-local   347.90727   348.46695   347.64802     0.02133    -0.74197     0.13893
  augment   506.40443   506.40281   506.45505     0.00134     0.00655     0.01103
  Kinetic   911.21801   922.02664   918.02927     1.58204    -1.29667     1.49709
  Fock        0.00000     0.00000     0.00000     0.00000     0.00000     0.00000
  -------------------------------------------------------------------------------------
  Total      -0.64381    -0.64445    -0.62197     0.00059     0.00283     0.00476
  in kB      -6.79608    -6.80286    -6.56552     0.00623     0.02986     0.05027
  external pressure =       -6.72 kB  Pullay stress =        0.00 kB


 VOLUME and BASIS-vectors are now :
 -----------------------------------------------------------------------------
  energy-cutoff  :      441.00
  volume of cell :      151.78
      direct lattice vectors                 reciprocal lattice vectors
     4.103097000  0.000000000  9.409867000     0.243718343 -0.132722536  0.000000000
     1.962329000  3.603424000  9.409867000     0.000000000  0.277513831  0.000000000
     0.000000000  0.000000000 10.265525000    -0.223403790 -0.132722567  0.097413430

  length of vectors
    10.265524923 10.265524662 10.265525000     0.277513787  0.277513831  0.277513800


 FORCES acting on ions
    electron-ion (+dipol)            ewald-force                    non-local-force                 convergence-correction
 -----------------------------------------------------------------------------------------------
   -.101E+03 -.597E+02 -.482E+03   0.991E+02 0.589E+02 0.475E+03   0.142E+01 0.843E+00 0.680E+01   0.881E-03 0.523E-03 0.423E-02
   0.101E+03 0.597E+02 0.482E+03   -.991E+02 -.589E+02 -.475E+03   -.142E+01 -.843E+00 -.680E+01   -.881E-03 -.523E-03 -.423E-02
   -.110E-13 -.630E-14 -.743E-13   0.266E-13 -.355E-14 0.284E-13   0.000E+00 0.000E+00 -.132E-22   -.145E-12 -.818E-13 -.669E-12
   0.602E+02 0.358E+02 0.289E+03   -.609E+02 -.362E+02 -.292E+03   0.621E+00 0.369E+00 0.298E+01   0.312E-03 0.185E-03 0.149E-02
   -.602E+02 -.358E+02 -.289E+03   0.609E+02 0.362E+02 0.292E+03   -.621E+00 -.369E+00 -.298E+01   -.312E-03 -.185E-03 -.149E-02
 -----------------------------------------------------------------------------------------------
   0.105E-11 -.356E-11 0.192E-10   -.711E-14 0.711E-14 0.114E-12   -.222E-15 0.000E+00 -.888E-15   -.539E-12 -.317E-12 -.243E-11
 
 
 POSITION                                       TOTAL-FORCE (eV/Angst)
 -----------------------------------------------------------------------------------
      2.41668      1.43573     11.58859         0.005506      0.003271      0.026405
      3.64875      2.16769     17.49667        -0.005506     -0.003271     -0.026405
      0.00000      0.00000      0.00000        -0.000000      0.000000     -0.000000
      1.30840      0.77731      6.27413         0.013184      0.007832      0.063219
      4.75702      2.82611     22.81113        -0.013184     -0.007832     -0.063219
 -----------------------------------------------------------------------------------
    total drift:                                0.000000     -0.000000      0.000000


--------------------------------------------------------------------------------------------------------



  FREE ENERGIE OF THE ION-ELECTRON SYSTEM (eV)
  ---------------------------------------------------
  free  energy   TOTEN  =       -20.15434285 eV

  energy  without entropy=      -20.15408713  energy(sigma->0) =      -20.15427892
 


--------------------------------------------------------------------------------------------------------


    POTLOK:  cpu time    0.0579: real time    0.0578


--------------------------------------------------------------------------------------------------------


 writing wavefunctions
     LOOP+:  cpu time  100.8009: real time  103.9247
    4ORBIT:  cpu time    0.0000: real time    0.0000

 total amount of memory used by VASP on root node    48563. kBytes
========================================================================

   base      :      30000. kBytes
   nonlr-proj:       1638. kBytes
   fftplans  :       3114. kBytes
   grid      :       5102. kBytes
   one-center:         15. kBytes
   wavefun   :       8694. kBytes
 
  
  
 General timing and accounting informations for this job:
 ========================================================
  
                  Total CPU time used (sec):      104.004
                            User time (sec):      103.276
                          System time (sec):        0.728
                         Elapsed time (sec):      107.969
  
                   Maximum memory used (kb):       72516.
                   Average memory used (kb):           0.
  
                          Minor page faults:        35898
                          Major page faults:            0
                 Voluntary context switches:         4280
