 vasp.5.4.1 24Jun15 (build Jun 17 2016 15:57:28) complex                        
  
 executed on           IFC91_ompi date 2016.11.24  11:04:42
 running on   16 total cores
 distrk:  each k-point on   16 cores,    1 groups
 distr:  one band on NCORES_PER_BAND=  16 cores,    1 groups


--------------------------------------------------------------------------------------------------------


 INCAR:
 POTCAR:    PAW_PBE Bi_pv 29Jan08 GW ready        
 POTCAR:   PAW_PBE Se 06Sep2000                   

 ----------------------------------------------------------------------------- 
|                                                                             |
|           W    W    AA    RRRRR   N    N  II  N    N   GGGG   !!!           |
|           W    W   A  A   R    R  NN   N  II  NN   N  G    G  !!!           |
|           W    W  A    A  R    R  N N  N  II  N N  N  G       !!!           |
|           W WW W  AAAAAA  RRRRR   N  N N  II  N  N N  G  GGG   !            |
|           WW  WW  A    A  R   R   N   NN  II  N   NN  G    G                |
|           W    W  A    A  R    R  N    N  II  N    N   GGGG   !!!           |
|                                                                             |
|      For optimal performance we recommend to set                            |
|        NCORE= 4 - approx SQRT( number of cores)                             |
|      NCORE specifies how many cores store one orbital (NPAR=cpu/NCORE).     |
|      This setting can  greatly improve the performance of VASP for DFT.     |
|      The default, NPAR=number of cores might be grossly inefficient         |
|      on modern multi-core architectures or massively parallel machines.     |
|      Do your own testing !!!!                                               |
|      Unfortunately you need to use the default for GW and RPA calculations. |
|      (for HF NCORE is supported but not extensively tested yet)             |
|                                                                             |
 ----------------------------------------------------------------------------- 

 POTCAR:    PAW_PBE Bi_pv 29Jan08 GW ready        
   VRHFIN =Bi:                                                                  
   LEXCH  = PE                                                                  
   EATOM  =  4638.5322 eV,  340.9225 Ry                                         
                                                                                
   TITEL  = PAW_PBE Bi_pv 29Jan08 GW ready                                      
   LULTRA =        F    use ultrasoft PP ?                                      
   IUNSCR =        1    unscreen: 0-lin 1-nonlin 2-no                           
   RPACOR =    2.200    partial core radius                                     
   POMASS =  208.980; ZVAL   =   21.000    mass and valenz                      
   RCORE  =    2.500    outmost cutoff radius                                   
   RWIGS  =    3.090; RWIGS  =    1.635    wigner-seitz radius (au A)           
   ENMAX  =  309.187; ENMIN  =  231.890 eV                                      
   ICORE  =        3    local potential                                         
   LCOR   =        T    correct aug charges                                     
   LPAW   =        T    paw PP                                                  
   EAUG   =  442.899                                                            
   DEXC   =    0.000                                                            
   RMAX   =    2.622    core radius for proj-oper                               
   RAUG   =    1.300    factor for augmentation sphere                          
   RDEP   =    2.650    radius for radial grids                                 
   QCUT   =   -4.767; QGAM   =    9.534    optimization parameters              
                                                                                
   Description                                                                  
     l     E      TYP  RCUT    TYP  RCUT                                        
     1   -95.81     23  1.900                                                   
     1    -4.57     23  1.900                                                   
     2   -27.08     23  2.200                                                   
     2   -28.44     23  2.200                                                   
     0   -14.47     23  2.500                                                   
     0     6.80     23  2.500                                                   
     3    -1.36      7  2.200                                                   
  local pseudopotential read in
  partial core-charges read in
  atomic valenz-charges read in
  non local Contribution for L=           1  read in
    real space projection operators read in
  non local Contribution for L=           1  read in
    real space projection operators read in
  non local Contribution for L=           2  read in
    real space projection operators read in
  non local Contribution for L=           2  read in
    real space projection operators read in
  non local Contribution for L=           0  read in
    real space projection operators read in
  non local Contribution for L=           0  read in
    real space projection operators read in
    PAW grid and wavefunctions read in
 
   number of l-projection  operators is LMAX  =           6
   number of lm-projection operators is LMMAX =          18
 
 POTCAR:   PAW_PBE Se 06Sep2000                   
   VRHFIN =Se: s2p4                                                             
   LEXCH  = PE                                                                  
   EATOM  =   256.9644 eV,   18.8864 Ry                                         
                                                                                
   TITEL  = PAW_PBE Se 06Sep2000                                                
   LULTRA =        F    use ultrasoft PP ?                                      
   IUNSCR =        1    unscreen: 0-lin 1-nonlin 2-no                           
   RPACOR =    1.900    partial core radius                                     
   POMASS =   78.960; ZVAL   =    6.000    mass and valenz                      
   RCORE  =    2.100    outmost cutoff radius                                   
   RWIGS  =    2.200; RWIGS  =    1.164    wigner-seitz radius (au A)           
   ENMAX  =  211.534; ENMIN  =  158.651 eV                                      
   ICORE  =        3    local potential                                         
   LCOR   =        T    correct aug charges                                     
   LPAW   =        T    paw PP                                                  
   EAUG   =  446.842                                                            
   DEXC   =    -.031                                                            
   RMAX   =    3.170    core radius for proj-oper                               
   RAUG   =    1.300    factor for augmentation sphere                          
   RDEP   =    2.177    radius for radial grids                                 
   QCUT   =   -3.943; QGAM   =    7.886    optimization parameters              
                                                                                
   Description                                                                  
     l     E      TYP  RCUT    TYP  RCUT                                        
     0   .000     23  2.100                                                     
     0   .000     23  2.100                                                     
     1   .000     23  2.100                                                     
     1   .000     23  2.100                                                     
     2   .000     23  2.100                                                     
     3  -.100      7  2.100                                                     
  local pseudopotential read in
  partial core-charges read in
  atomic valenz-charges read in
  non local Contribution for L=           0  read in
    real space projection operators read in
  non local Contribution for L=           0  read in
    real space projection operators read in
  non local Contribution for L=           1  read in
    real space projection operators read in
  non local Contribution for L=           1  read in
    real space projection operators read in
  non local Contribution for L=           2  read in
    real space projection operators read in
    PAW grid and wavefunctions read in
 
   number of l-projection  operators is LMAX  =           5
   number of lm-projection operators is LMMAX =          13
 

 ----------------------------------------------------------------------------- 
|                                                                             |
|  ADVICE TO THIS USER RUNNING 'VASP/VAMP'   (HEAR YOUR MASTER'S VOICE ...):  |
|                                                                             |
|      You have a (more or less) 'small supercell' and for smaller cells      |
|      it is recommended  to use the reciprocal-space projection scheme!      |
|      The real space optimization is not  efficient for small cells and it   |
|      is also less accurate ...                                              |
|      Therefore set LREAL=.FALSE. in the  INCAR file                         |
|                                                                             |
 ----------------------------------------------------------------------------- 

 Optimization of the real space projectors (new method)

 maximal supplied QI-value         = 15.12
 optimisation between [QCUT,QGAM] = [ 10.73, 21.47] = [ 32.26,129.05] Ry 
 Optimized for a Real-space Cutoff    1.44 Angstroem

   l    n(q)    QCUT    max X(q) W(low)/X(q) W(high)/X(q)  e(spline) 
   1      9    10.734     2.850    0.13E-03    0.22E-03    0.28E-06
   1      9    10.734     6.992    0.16E-03    0.36E-03    0.33E-06
   2      8    10.734    50.816    0.52E-04    0.12E-03    0.13E-06
   2      8    10.734    51.435    0.54E-04    0.12E-03    0.13E-06
   0      9    10.734    20.448    0.23E-03    0.26E-04    0.20E-06
   0      9    10.734     8.797    0.34E-03    0.39E-04    0.29E-06
 Optimization of the real space projectors (new method)

 maximal supplied QI-value         = 17.95
 optimisation between [QCUT,QGAM] = [ 10.59, 21.36] = [ 31.42,127.80] Ry 
 Optimized for a Real-space Cutoff    1.28 Angstroem

   l    n(q)    QCUT    max X(q) W(low)/X(q) W(high)/X(q)  e(spline) 
   0      8    10.592     6.499    0.15E-04    0.12E-04    0.11E-07
   0      8    10.592    52.623    0.14E-03    0.24E-03    0.47E-07
   1      8    10.592     4.229    0.15E-04    0.48E-04    0.38E-07
   1      8    10.592    29.991    0.48E-03    0.71E-04    0.83E-07
   2      7    10.592     3.719    0.14E-03    0.26E-03    0.49E-07
  PAW_PBE Bi_pv 29Jan08 GW ready        :
 energy of atom  1       EATOM=-4638.5322
 kinetic energy error for atom=    0.0832 (will be added to EATOM!!)
 PAW_PBE Se 06Sep2000                   :
 energy of atom  2       EATOM= -256.9644
 kinetic energy error for atom=    0.0012 (will be added to EATOM!!)
 
 
 POSCAR: i2a=[Bi,Se] ; Bi2Se3.su.static.5        
  positions in direct lattice
  No initial velocities read in
 exchange correlation table for  LEXCH =        8
   RHO(1)=    0.500       N(1)  =     2000
   RHO(2)=  100.500       N(2)  =     4000
 


--------------------------------------------------------------------------------------------------------


 ion  position               nearest neighbor table
   1  0.398  0.398  0.398-   5 2.93   5 2.93   5 2.93   3 3.16   3 3.16   3 3.16
   2  0.602  0.602  0.602-   4 2.93   4 2.93   4 2.93   3 3.16   3 3.16   3 3.16
   3  0.000  0.000  0.000-   2 3.16   1 3.16   2 3.16   1 3.16   2 3.16   1 3.16
   4  0.216  0.216  0.216-   2 2.93   2 2.93   2 2.93
   5  0.784  0.784  0.784-   1 2.93   1 2.93   1 2.93
 
  LATTYP: Found a trigonal (rhomboedric) cell.
 ALAT       =    10.4366170000
 COS(alpha) =     0.9166474580
  
  Lattice vectors:
  
 A1 = (   4.1714820000,   0.0000000000,   9.5666980000)
 A2 = (   1.9950340000,   3.6634810000,   9.5666980000)
 A3 = (   0.0000000000,   0.0000000000,  10.4366170000)


Analysis of symmetry for initial positions (statically):
=====================================================================
 Subroutine PRICEL returns:
 Original cell was already a primitive cell.
 

 Routine SETGRP: Setting up the symmetry group for a 
 trigonal (rhombohedral) supercell.


 Subroutine GETGRP returns: Found 12 space group operations
 (whereof 12 operations were pure point group operations)
 out of a pool of 12 trial point group operations.


The static configuration has the point symmetry D_3d.


Analysis of symmetry for dynamics (positions and initial velocities):
=====================================================================
 Subroutine PRICEL returns:
 Original cell was already a primitive cell.
 

 Routine SETGRP: Setting up the symmetry group for a 
 trigonal (rhombohedral) supercell.


 Subroutine GETGRP returns: Found 12 space group operations
 (whereof 12 operations were pure point group operations)
 out of a pool of 12 trial point group operations.


The dynamic configuration has the point symmetry D_3d.
 
 
 KPOINTS: Automatic Mesh                          

Automatic generation of k-mesh.
Space group operators:
 irot       det(A)        alpha          n_x          n_y          n_z        tau_x        tau_y        tau_z
    1     1.000000     0.000001     1.000000     0.000000     0.000000     0.000000     0.000000     0.000000
    2    -1.000000     0.000001     1.000000     0.000000     0.000000     0.000000     0.000000     0.000000
    3     1.000000   180.000000     0.468184     0.859726    -0.204148     0.000000     0.000000     0.000000
    4    -1.000000   180.000000     0.468184     0.859726    -0.204148     0.000000     0.000000     0.000000
    5     1.000000   120.000000    -0.202663    -0.120400    -0.971819     0.000000     0.000000     0.000000
    6    -1.000000   120.000000    -0.202663    -0.120400    -0.971819     0.000000     0.000000     0.000000
    7     1.000000   180.000000     0.510756    -0.859725     0.000000     0.000000     0.000000     0.000000
    8    -1.000000   180.000000     0.510756    -0.859725     0.000000     0.000000     0.000000     0.000000
    9     1.000000   120.000000     0.202663     0.120400     0.971819     0.000000     0.000000     0.000000
   10    -1.000000   120.000000     0.202663     0.120400     0.971819     0.000000     0.000000     0.000000
   11     1.000000   180.000000     0.978940     0.000000    -0.204148     0.000000     0.000000     0.000000
   12    -1.000000   180.000000     0.978940     0.000000    -0.204148     0.000000     0.000000     0.000000
 
 Subroutine IBZKPT returns following result:
 ===========================================
 
 Found     65 irreducible k-points:
 
 Following reciprocal coordinates:
            Coordinates               Weight
  0.000000  0.000000  0.000000      1.000000
  0.125000  0.000000  0.000000      6.000000
  0.250000  0.000000  0.000000      6.000000
  0.375000  0.000000  0.000000      6.000000
  0.500000  0.000000  0.000000      3.000000
  0.125000  0.125000  0.000000      6.000000
  0.250000  0.125000  0.000000     12.000000
  0.375000  0.125000  0.000000     12.000000
  0.500000  0.125000  0.000000     12.000000
 -0.375000  0.125000  0.000000     12.000000
 -0.250000  0.125000  0.000000     12.000000
 -0.125000  0.125000  0.000000      6.000000
  0.250000  0.250000  0.000000      6.000000
  0.375000  0.250000  0.000000     12.000000
  0.500000  0.250000  0.000000     12.000000
 -0.375000  0.250000  0.000000     12.000000
 -0.250000  0.250000  0.000000      6.000000
  0.375000  0.375000  0.000000      6.000000
  0.500000  0.375000  0.000000     12.000000
 -0.375000  0.375000  0.000000      6.000000
  0.500000  0.500000  0.000000      3.000000
  0.125000  0.125000  0.125000      2.000000
  0.250000  0.125000  0.125000      6.000000
  0.375000  0.125000  0.125000      6.000000
  0.500000  0.125000  0.125000      6.000000
 -0.375000  0.125000  0.125000      6.000000
 -0.250000  0.125000  0.125000      6.000000
 -0.125000  0.125000  0.125000      6.000000
  0.250000  0.250000  0.125000      6.000000
  0.375000  0.250000  0.125000     12.000000
  0.500000  0.250000  0.125000     12.000000
 -0.375000  0.250000  0.125000     12.000000
 -0.250000  0.250000  0.125000     12.000000
 -0.125000  0.250000  0.125000     12.000000
  0.375000  0.375000  0.125000      6.000000
  0.500000  0.375000  0.125000     12.000000
 -0.375000  0.375000  0.125000     12.000000
 -0.250000  0.375000  0.125000     12.000000
 -0.125000  0.375000  0.125000     12.000000
  0.500000  0.500000  0.125000      6.000000
 -0.375000  0.500000  0.125000     12.000000
 -0.250000  0.500000  0.125000     12.000000
 -0.125000  0.500000  0.125000      6.000000
 -0.375000 -0.375000  0.125000      6.000000
 -0.250000 -0.375000  0.125000     12.000000
 -0.250000 -0.250000  0.125000      6.000000
  0.250000  0.250000  0.250000      2.000000
  0.375000  0.250000  0.250000      6.000000
  0.500000  0.250000  0.250000      6.000000
 -0.375000  0.250000  0.250000      6.000000
 -0.250000  0.250000  0.250000      6.000000
  0.375000  0.375000  0.250000      6.000000
  0.500000  0.375000  0.250000     12.000000
 -0.375000  0.375000  0.250000     12.000000
 -0.250000  0.375000  0.250000     12.000000
  0.500000  0.500000  0.250000      6.000000
 -0.375000  0.500000  0.250000     12.000000
 -0.250000  0.500000  0.250000      6.000000
 -0.375000 -0.375000  0.250000      6.000000
  0.375000  0.375000  0.375000      2.000000
  0.500000  0.375000  0.375000      6.000000
 -0.375000  0.375000  0.375000      6.000000
  0.500000  0.500000  0.375000      6.000000
 -0.375000  0.500000  0.375000      6.000000
  0.500000  0.500000  0.500000      1.000000
 
 Following cartesian coordinates:
            Coordinates               Weight
  0.000000  0.000000  0.000000      1.000000
  0.029965 -0.016318  0.000000      6.000000
  0.059931 -0.032637  0.000000      6.000000
  0.089896 -0.048955  0.000000      6.000000
  0.119861 -0.065273  0.000000      3.000000
  0.029965  0.017802  0.000000      6.000000
  0.059931  0.001484  0.000000     12.000000
  0.089896 -0.014834  0.000000     12.000000
  0.119861 -0.031153  0.000000     12.000000
 -0.089896  0.083076  0.000000     12.000000
 -0.059931  0.066757  0.000000     12.000000
 -0.029965  0.050439  0.000000      6.000000
  0.059931  0.035604  0.000000      6.000000
  0.089896  0.019286  0.000000     12.000000
  0.119861  0.002968  0.000000     12.000000
 -0.089896  0.117196  0.000000     12.000000
 -0.059931  0.100878  0.000000      6.000000
  0.089896  0.053407  0.000000      6.000000
  0.119861  0.037088  0.000000     12.000000
 -0.089896  0.151317  0.000000      6.000000
  0.119861  0.071209  0.000000      3.000000
  0.002498  0.001484  0.011977      2.000000
  0.032463 -0.014834  0.011977      6.000000
  0.062428 -0.031153  0.011977      6.000000
  0.092394 -0.047471  0.011977      6.000000
 -0.117364  0.066757  0.011977      6.000000
 -0.087398  0.050439  0.011977      6.000000
 -0.057433  0.034121  0.011977      6.000000
  0.032463  0.019286  0.011977      6.000000
  0.062428  0.002968  0.011977     12.000000
  0.092394 -0.013351  0.011977     12.000000
 -0.117364  0.100878  0.011977     12.000000
 -0.087398  0.084559  0.011977     12.000000
 -0.057433  0.068241  0.011977     12.000000
  0.062428  0.037088  0.011977      6.000000
  0.092394  0.020770  0.011977     12.000000
 -0.117364  0.134998  0.011977     12.000000
 -0.087398  0.118680  0.011977     12.000000
 -0.057433  0.102362  0.011977     12.000000
  0.092394  0.054890  0.011977      6.000000
 -0.117364  0.169119  0.011977     12.000000
 -0.087398  0.152801  0.011977     12.000000
 -0.057433  0.136482  0.011977      6.000000
 -0.117364 -0.069725  0.011977      6.000000
 -0.087398 -0.086043  0.011977     12.000000
 -0.087398 -0.051923  0.011977      6.000000
  0.004995  0.002968  0.023954      2.000000
  0.034961 -0.013351  0.023954      6.000000
  0.064926 -0.029669  0.023954      6.000000
 -0.144831  0.084559  0.023954      6.000000
 -0.114866  0.068241  0.023954      6.000000
  0.034961  0.020770  0.023954      6.000000
  0.064926  0.004452  0.023954     12.000000
 -0.144831  0.118680  0.023954     12.000000
 -0.114866  0.102362  0.023954     12.000000
  0.064926  0.038572  0.023954      6.000000
 -0.144831  0.152801  0.023954     12.000000
 -0.114866  0.136482  0.023954      6.000000
 -0.144831 -0.086043  0.023954      6.000000
  0.007493  0.004452  0.035931      2.000000
  0.037458 -0.011867  0.035931      6.000000
 -0.172299  0.102362  0.035931      6.000000
  0.037458  0.022254  0.035931      6.000000
 -0.172299  0.136482  0.035931      6.000000
  0.009991  0.005935  0.047908      1.000000
 


--------------------------------------------------------------------------------------------------------




 Dimension of arrays:
   k-points           NKPTS =     65   k-points in BZ     NKDIM =     65   number of bands    NBANDS=     38
   number of dos      NEDOS =    301   number of ions     NIONS =      5
   non local maximal  LDIM  =      6   non local SUM 2l+1 LMDIM =     18
   total plane-waves  NPLWV = 157464
   max r-space proj   IRMAX =  12314   max aug-charges    IRDMAX=  43826
   dimension x,y,z NGX =    54 NGY =   54 NGZ =   54
   dimension x,y,z NGXF=   108 NGYF=  108 NGZF=  108
   support grid    NGXF=   108 NGYF=  108 NGZF=  108
   ions per type =               2   3
 NGX,Y,Z   is equivalent  to a cutoff of   8.60,  8.60,  8.60 a.u.
 NGXF,Y,Z  is equivalent  to a cutoff of  17.20, 17.20, 17.20 a.u.


 I would recommend the setting:
   dimension x,y,z NGX =    54 NGY =   54 NGZ =   54
 SYSTEM =  obtained from ('Bi2Se3', 'static', 1) b 
 POSCAR =  i2a=[Bi,Se] ; Bi2Se3.su.static.5        

 Startparameter for this run:
   NWRITE =      2    write-flag & timer
   PREC   = normal    normal or accurate (medium, high low for compatibility)
   ISTART =      0    job   : 0-new  1-cont  2-samecut
   ICHARG =      2    charge: 1-file 2-atom 10-const
   ISPIN  =      1    spin polarized calculation?
   LNONCOLLINEAR =      F non collinear calculations
   LSORBIT =      F    spin-orbit coupling
   INIWAV =      1    electr: 0-lowe 1-rand  2-diag
   LASPH  =      F    aspherical Exc in radial PAW
   METAGGA=      F    non-selfconsistent MetaGGA calc.

 Electronic Relaxation 1
   ENCUT  =  441.0 eV  32.41 Ry    5.69 a.u.  17.87 17.87 17.87*2*pi/ulx,y,z
   ENINI  =  441.0     initial cutoff
   ENAUG  =  776.2 eV  augmentation charge cutoff
   NELM   =     50;   NELMIN=  4; NELMDL= -5     # of ELM steps 
   EDIFF  = 0.6E-05   stopping-criterion for ELM
   LREAL  =      T    real-space projection
   NLSPLINE    = F    spline interpolate recip. space projectors
   LCOMPAT=      F    compatible to vasp.4.4
   GGA_COMPAT  = T    GGA compatible to vasp.4.4-vasp.4.6
   LMAXPAW     = -100 max onsite density
   LMAXMIX     =    2 max onsite mixed and CHGCAR
   VOSKOWN=      0    Vosko Wilk Nusair interpolation
   ROPT   =   -0.00050  -0.00050
 Ionic relaxation
   EDIFFG = 0.0E+00   stopping-criterion for IOM
   NSW    =      0    number of steps for IOM
   NBLOCK =      1;   KBLOCK =      1    inner block; outer block 
   IBRION =     -1    ionic relax: 0-MD 1-quasi-New 2-CG
   NFREE  =      0    steps in history (QN), initial steepest desc. (CG)
   ISIF   =      2    stress and relaxation
   IWAVPR =     10    prediction:  0-non 1-charg 2-wave 3-comb
   ISYM   =      2    0-nonsym 1-usesym 2-fastsym
   LCORR  =      T    Harris-Foulkes like correction to forces

   POTIM  = 0.5000    time-step for ionic-motion
   TEIN   =    0.0    initial temperature
   TEBEG  =    0.0;   TEEND  =   0.0 temperature during run
   SMASS  =  -3.00    Nose mass-parameter (am)
   estimated Nose-frequenzy (Omega)   =  0.10E-29 period in steps =****** mass=  -0.249E-26a.u.
   SCALEE = 1.0000    scale energy and forces
   NPACO  =    256;   APACO  = 16.0  distance and # of slots for P.C.
   PSTRESS=    0.0 pullay stress

  Mass of Ions in am
   POMASS = 208.98 78.96
  Ionic Valenz
   ZVAL   =  21.00  6.00
  Atomic Wigner-Seitz radii
   RWIGS  =  -1.00 -1.00
  virtual crystal weights 
   VCA    =   1.00  1.00
   NELECT =      60.0000    total number of electrons
   NUPDOWN=      -1.0000    fix difference up-down

 DOS related values:
   EMIN   =  10.00;   EMAX   =-10.00  energy-range for DOS
   EFERMI =   0.00
   ISMEAR =     2;   SIGMA  =   0.20  broadening in eV -4-tet -1-fermi 0-gaus

 Electronic relaxation 2 (details)
   IALGO  =     38    algorithm
   LDIAG  =      T    sub-space diagonalisation (order eigenvalues)
   LSUBROT=      F    optimize rotation matrix (better conditioning)
   TURBO    =      0    0=normal 1=particle mesh
   IRESTART =      0    0=no restart 2=restart with 2 vectors
   NREBOOT  =      0    no. of reboots
   NMIN     =      0    reboot dimension
   EREF     =   0.00    reference energy to select bands
   IMIX   =      4    mixing-type and parameters
     AMIX     =   0.40;   BMIX     =  1.00
     AMIX_MAG =   1.60;   BMIX_MAG =  1.00
     AMIN     =   0.10
     WC   =   100.;   INIMIX=   1;  MIXPRE=   1;  MAXMIX=  40

 Intra band minimization:
   WEIMIN = 0.0000     energy-eigenvalue tresh-hold
   EBREAK =  0.00E+00  absolut break condition
   DEPER  =   0.30     relativ break condition  

   TIME   =   0.40     timestep for ELM

  volume/ion in A,a.u.               =      31.90       215.26
  Fermi-wavevector in a.u.,A,eV,Ry     =   1.181800  2.233278 19.002586  1.396651
  Thomas-Fermi vector in A             =   2.318066
 
 Write flags
   LWAVE  =      T    write WAVECAR
   LCHARG =      T    write CHGCAR
   LVTOT  =      F    write LOCPOT, total local potential
   LVHAR  =      F    write LOCPOT, Hartree potential only
   LELF   =      F    write electronic localiz. function (ELF)
   LORBIT =      0    0 simple, 1 ext, 2 COOP (PROOUT)


 Dipole corrections
   LMONO  =      F    monopole corrections only (constant potential shift)
   LDIPOL =      F    correct potential (dipole corrections)
   IDIPOL =      0    1-x, 2-y, 3-z, 4-all directions 
   EPSILON=  1.0000000 bulk dielectric constant

 Exchange correlation treatment:
   GGA     =    --    GGA type
   LEXCH   =     8    internal setting for exchange type
   VOSKOWN=      0    Vosko Wilk Nusair interpolation
   LHFCALC =     F    Hartree Fock is set to
   LHFONE  =     F    Hartree Fock one center treatment
   AEXX    =    0.0000 exact exchange contribution

 Linear response parameters
   LEPSILON=     F    determine dielectric tensor
   LRPA    =     F    only Hartree local field effects (RPA)
   LNABLA  =     F    use nabla operator in PAW spheres
   LVEL    =     F    velocity operator in full k-point grid
   LINTERFAST=   F  fast interpolation
   KINTER  =     0    interpolate to denser k-point grid
   CSHIFT  =0.1000    complex shift for real part using Kramers Kronig
   OMEGAMAX=  -1.0    maximum frequency
   DEG_THRESHOLD= 0.2000000E-02 threshold for treating states as degnerate
   RTIME   =    0.100 relaxation time in fs

 Orbital magnetization related:
   ORBITALMAG=     F  switch on orbital magnetization
   LCHIMAG   =     F  perturbation theory with respect to B field
   DQ        =  0.001000  dq finite difference perturbation B field



--------------------------------------------------------------------------------------------------------


 Static calculation
 charge density and potential will be updated during run
 non-spin polarized calculation
 Variant of blocked Davidson
 Davidson routine will perform the subspace rotation
 perform sub-space diagonalisation
    after iterative eigenvector-optimisation
 modified Broyden-mixing scheme, WC =      100.0
 initial mixing is a Kerker type mixing with AMIX =  0.4000 and BMIX =      1.0000
 Hartree-type preconditioning will be used
 using additional bands            8
 real space projection scheme for non local part
 use partial core corrections
 calculate Harris-corrections to forces 
   (improved forces if not selfconsistent)
 use gradient corrections 
 use of overlap-Matrix (Vanderbilt PP)
 Methfessel and Paxton  Order N= 2 SIGMA  =   0.20


--------------------------------------------------------------------------------------------------------


  energy-cutoff  :      441.00
  volume of cell :      159.49
      direct lattice vectors                 reciprocal lattice vectors
     4.171482000  0.000000000  9.566698000     0.239722957 -0.130546726  0.000000000
     1.995034000  3.663481000  9.566698000     0.000000000  0.272964429  0.000000000
     0.000000000  0.000000000 10.436617000    -0.219741429 -0.130546820  0.095816489

  length of vectors
    10.436616918 10.436616517 10.436617000     0.272964363  0.272964429  0.272964407


 
 k-points in units of 2pi/SCALE and weight: Automatic Mesh                          
   0.00000000  0.00000000  0.00000000       0.002
   0.02996537 -0.01631834  0.00000000       0.012
   0.05993074 -0.03263668  0.00000000       0.012
   0.08989611 -0.04895502  0.00000000       0.012
   0.11986148 -0.06527336  0.00000000       0.006
   0.02996537  0.01780221  0.00000000       0.012
   0.05993074  0.00148387  0.00000000       0.023
   0.08989611 -0.01483447  0.00000000       0.023
   0.11986148 -0.03115281  0.00000000       0.023
  -0.08989611  0.08307558  0.00000000       0.023
  -0.05993074  0.06675724  0.00000000       0.023
  -0.02996537  0.05043889  0.00000000       0.012
   0.05993074  0.03560443  0.00000000       0.012
   0.08989611  0.01928609  0.00000000       0.023
   0.11986148  0.00296774  0.00000000       0.023
  -0.08989611  0.11719613  0.00000000       0.023
  -0.05993074  0.10087779  0.00000000       0.012
   0.08989611  0.05340664  0.00000000       0.012
   0.11986148  0.03708830  0.00000000       0.023
  -0.08989611  0.15131668  0.00000000       0.012
   0.11986148  0.07120885  0.00000000       0.006
   0.00249769  0.00148386  0.01197706       0.004
   0.03246306 -0.01483448  0.01197706       0.012
   0.06242843 -0.03115282  0.01197706       0.012
   0.09239380 -0.04747116  0.01197706       0.012
  -0.11736379  0.06675722  0.01197706       0.012
  -0.08739842  0.05043888  0.01197706       0.012
  -0.05743305  0.03412054  0.01197706       0.012
   0.03246306  0.01928607  0.01197706       0.012
   0.06242843  0.00296773  0.01197706       0.023
   0.09239380 -0.01335061  0.01197706       0.023
  -0.11736379  0.10087778  0.01197706       0.023
  -0.08739842  0.08455944  0.01197706       0.023
  -0.05743305  0.06824110  0.01197706       0.023
   0.06242843  0.03708829  0.01197706       0.012
   0.09239380  0.02076995  0.01197706       0.023
  -0.11736379  0.13499833  0.01197706       0.023
  -0.08739842  0.11867999  0.01197706       0.023
  -0.05743305  0.10236165  0.01197706       0.023
   0.09239380  0.05489050  0.01197706       0.012
  -0.11736379  0.16911888  0.01197706       0.023
  -0.08739842  0.15280054  0.01197706       0.023
  -0.05743305  0.13648220  0.01197706       0.012
  -0.11736379 -0.06972499  0.01197706       0.012
  -0.08739842 -0.08604333  0.01197706       0.023
  -0.08739842 -0.05192278  0.01197706       0.012
   0.00499538  0.00296772  0.02395412       0.004
   0.03496075 -0.01335062  0.02395412       0.012
   0.06492612 -0.02966896  0.02395412       0.012
  -0.14483147  0.08455942  0.02395412       0.012
  -0.11486610  0.06824108  0.02395412       0.012
   0.03496075  0.02076993  0.02395412       0.012
   0.06492612  0.00445159  0.02395412       0.023
  -0.14483147  0.11867998  0.02395412       0.023
  -0.11486610  0.10236164  0.02395412       0.023
   0.06492612  0.03857215  0.02395412       0.012
  -0.14483147  0.15280053  0.02395412       0.023
  -0.11486610  0.13648219  0.02395412       0.012
  -0.14483147 -0.08604334  0.02395412       0.012
   0.00749307  0.00445158  0.03593118       0.004
   0.03745844 -0.01186676  0.03593118       0.012
  -0.17229914  0.10236163  0.03593118       0.012
   0.03745844  0.02225379  0.03593118       0.012
  -0.17229914  0.13648218  0.03593118       0.012
   0.00999076  0.00593544  0.04790824       0.002
 
 k-points in reciprocal lattice and weights: Automatic Mesh                          
   0.00000000  0.00000000  0.00000000       0.002
   0.12500000  0.00000000  0.00000000       0.012
   0.25000000  0.00000000  0.00000000       0.012
   0.37500000  0.00000000  0.00000000       0.012
   0.50000000  0.00000000  0.00000000       0.006
   0.12500000  0.12500000  0.00000000       0.012
   0.25000000  0.12500000  0.00000000       0.023
   0.37500000  0.12500000  0.00000000       0.023
   0.50000000  0.12500000  0.00000000       0.023
  -0.37500000  0.12500000  0.00000000       0.023
  -0.25000000  0.12500000  0.00000000       0.023
  -0.12500000  0.12500000  0.00000000       0.012
   0.25000000  0.25000000  0.00000000       0.012
   0.37500000  0.25000000  0.00000000       0.023
   0.50000000  0.25000000  0.00000000       0.023
  -0.37500000  0.25000000  0.00000000       0.023
  -0.25000000  0.25000000  0.00000000       0.012
   0.37500000  0.37500000  0.00000000       0.012
   0.50000000  0.37500000  0.00000000       0.023
  -0.37500000  0.37500000  0.00000000       0.012
   0.50000000  0.50000000  0.00000000       0.006
   0.12500000  0.12500000  0.12500000       0.004
   0.25000000  0.12500000  0.12500000       0.012
   0.37500000  0.12500000  0.12500000       0.012
   0.50000000  0.12500000  0.12500000       0.012
  -0.37500000  0.12500000  0.12500000       0.012
  -0.25000000  0.12500000  0.12500000       0.012
  -0.12500000  0.12500000  0.12500000       0.012
   0.25000000  0.25000000  0.12500000       0.012
   0.37500000  0.25000000  0.12500000       0.023
   0.50000000  0.25000000  0.12500000       0.023
  -0.37500000  0.25000000  0.12500000       0.023
  -0.25000000  0.25000000  0.12500000       0.023
  -0.12500000  0.25000000  0.12500000       0.023
   0.37500000  0.37500000  0.12500000       0.012
   0.50000000  0.37500000  0.12500000       0.023
  -0.37500000  0.37500000  0.12500000       0.023
  -0.25000000  0.37500000  0.12500000       0.023
  -0.12500000  0.37500000  0.12500000       0.023
   0.50000000  0.50000000  0.12500000       0.012
  -0.37500000  0.50000000  0.12500000       0.023
  -0.25000000  0.50000000  0.12500000       0.023
  -0.12500000  0.50000000  0.12500000       0.012
  -0.37500000 -0.37500000  0.12500000       0.012
  -0.25000000 -0.37500000  0.12500000       0.023
  -0.25000000 -0.25000000  0.12500000       0.012
   0.25000000  0.25000000  0.25000000       0.004
   0.37500000  0.25000000  0.25000000       0.012
   0.50000000  0.25000000  0.25000000       0.012
  -0.37500000  0.25000000  0.25000000       0.012
  -0.25000000  0.25000000  0.25000000       0.012
   0.37500000  0.37500000  0.25000000       0.012
   0.50000000  0.37500000  0.25000000       0.023
  -0.37500000  0.37500000  0.25000000       0.023
  -0.25000000  0.37500000  0.25000000       0.023
   0.50000000  0.50000000  0.25000000       0.012
  -0.37500000  0.50000000  0.25000000       0.023
  -0.25000000  0.50000000  0.25000000       0.012
  -0.37500000 -0.37500000  0.25000000       0.012
   0.37500000  0.37500000  0.37500000       0.004
   0.50000000  0.37500000  0.37500000       0.012
  -0.37500000  0.37500000  0.37500000       0.012
   0.50000000  0.50000000  0.37500000       0.012
  -0.37500000  0.50000000  0.37500000       0.012
   0.50000000  0.50000000  0.50000000       0.002
 
 position of ions in fractional coordinates (direct lattice) 
   0.39843500  0.39843500  0.39843500
   0.60156500  0.60156500  0.60156500
   0.00000000  0.00000000  0.00000000
   0.21571500  0.21571500  0.21571500
   0.78428500  0.78428500  0.78428500
 
 position of ions in cartesian coordinates  (Angst):
   2.45695580  1.45965905 11.78172813
   3.70956020  2.20382195 17.78828487
   0.00000000  0.00000000  0.00000000
   1.33021000  0.79026780  6.37869535
   4.83630600  2.87321320 23.19131765
 


--------------------------------------------------------------------------------------------------------


 k-point  1 :   0.0000 0.0000 0.0000  plane waves:    3359
 k-point  2 :   0.1250 0.0000 0.0000  plane waves:    3367
 k-point  3 :   0.2500 0.0000 0.0000  plane waves:    3353
 k-point  4 :   0.3750 0.0000 0.0000  plane waves:    3352
 k-point  5 :   0.5000 0.0000 0.0000  plane waves:    3374
 k-point  6 :   0.1250 0.1250 0.0000  plane waves:    3372
 k-point  7 :   0.2500 0.1250 0.0000  plane waves:    3355
 k-point  8 :   0.3750 0.1250 0.0000  plane waves:    3346
 k-point  9 :   0.5000 0.1250 0.0000  plane waves:    3354
 k-point 10 :  -0.3750 0.1250 0.0000  plane waves:    3349
 k-point 11 :  -0.2500 0.1250 0.0000  plane waves:    3345
 k-point 12 :  -0.1250 0.1250 0.0000  plane waves:    3347
 k-point 13 :   0.2500 0.2500 0.0000  plane waves:    3358
 k-point 14 :   0.3750 0.2500 0.0000  plane waves:    3354
 k-point 15 :   0.5000 0.2500 0.0000  plane waves:    3350
 k-point 16 :  -0.3750 0.2500 0.0000  plane waves:    3350
 k-point 17 :  -0.2500 0.2500 0.0000  plane waves:    3343
 k-point 18 :   0.3750 0.3750 0.0000  plane waves:    3349
 k-point 19 :   0.5000 0.3750 0.0000  plane waves:    3359
 k-point 20 :  -0.3750 0.3750 0.0000  plane waves:    3344
 k-point 21 :   0.5000 0.5000 0.0000  plane waves:    3344
 k-point 22 :   0.1250 0.1250 0.1250  plane waves:    3383
 k-point 23 :   0.2500 0.1250 0.1250  plane waves:    3367
 k-point 24 :   0.3750 0.1250 0.1250  plane waves:    3356
 k-point 25 :   0.5000 0.1250 0.1250  plane waves:    3355
 k-point 26 :  -0.3750 0.1250 0.1250  plane waves:    3357
 k-point 27 :  -0.2500 0.1250 0.1250  plane waves:    3339
 k-point 28 :  -0.1250 0.1250 0.1250  plane waves:    3349
 k-point 29 :   0.2500 0.2500 0.1250  plane waves:    3370
 k-point 30 :   0.3750 0.2500 0.1250  plane waves:    3359
 k-point 31 :   0.5000 0.2500 0.1250  plane waves:    3364
 k-point 32 :  -0.3750 0.2500 0.1250  plane waves:    3354
 k-point 33 :  -0.2500 0.2500 0.1250  plane waves:    3354
 k-point 34 :  -0.1250 0.2500 0.1250  plane waves:    3345
 k-point 35 :   0.3750 0.3750 0.1250  plane waves:    3344
 k-point 36 :   0.5000 0.3750 0.1250  plane waves:    3353
 k-point 37 :  -0.3750 0.3750 0.1250  plane waves:    3362
 k-point 38 :  -0.2500 0.3750 0.1250  plane waves:    3353
 k-point 39 :  -0.1250 0.3750 0.1250  plane waves:    3346
 k-point 40 :   0.5000 0.5000 0.1250  plane waves:    3344
 k-point 41 :  -0.3750 0.5000 0.1250  plane waves:    3353
 k-point 42 :  -0.2500 0.5000 0.1250  plane waves:    3353
 k-point 43 :  -0.1250 0.5000 0.1250  plane waves:    3358
 k-point 44 :  -0.3750-0.3750 0.1250  plane waves:    3362
 k-point 45 :  -0.2500-0.3750 0.1250  plane waves:    3353
 k-point 46 :  -0.2500-0.2500 0.1250  plane waves:    3345
 k-point 47 :   0.2500 0.2500 0.2500  plane waves:    3383
 k-point 48 :   0.3750 0.2500 0.2500  plane waves:    3360
 k-point 49 :   0.5000 0.2500 0.2500  plane waves:    3370
 k-point 50 :  -0.3750 0.2500 0.2500  plane waves:    3351
 k-point 51 :  -0.2500 0.2500 0.2500  plane waves:    3349
 k-point 52 :   0.3750 0.3750 0.2500  plane waves:    3366
 k-point 53 :   0.5000 0.3750 0.2500  plane waves:    3354
 k-point 54 :  -0.3750 0.3750 0.2500  plane waves:    3360
 k-point 55 :  -0.2500 0.3750 0.2500  plane waves:    3355
 k-point 56 :   0.5000 0.5000 0.2500  plane waves:    3347
 k-point 57 :  -0.3750 0.5000 0.2500  plane waves:    3354
 k-point 58 :  -0.2500 0.5000 0.2500  plane waves:    3350
 k-point 59 :  -0.3750-0.3750 0.2500  plane waves:    3350
 k-point 60 :   0.3750 0.3750 0.3750  plane waves:    3385
 k-point 61 :   0.5000 0.3750 0.3750  plane waves:    3358
 k-point 62 :  -0.3750 0.3750 0.3750  plane waves:    3353
 k-point 63 :   0.5000 0.5000 0.3750  plane waves:    3363
 k-point 64 :  -0.3750 0.5000 0.3750  plane waves:    3366
 k-point 65 :   0.5000 0.5000 0.5000  plane waves:    3388

 maximum and minimum number of plane-waves per node :       232      192

 maximum number of plane-waves:      3388
 maximum index in each direction: 
   IXMAX=   18   IYMAX=   18   IZMAX=   17
   IXMIN=  -18   IYMIN=  -18   IZMIN=  -18

 WARNING: aliasing errors must be expected set NGX to  74 to avoid them
 WARNING: aliasing errors must be expected set NGY to  74 to avoid them
 WARNING: aliasing errors must be expected set NGZ to  72 to avoid them
 aliasing errors are usually negligible using standard VASP settings
 and one can safely disregard these warnings

 real space projection operators:
  total allocation   :       5874.99 KBytes
  max/ min on nodes  :        416.92        334.75


 parallel 3D FFT for wavefunctions:
    minimum data exchange during FFTs selected (reduces bandwidth)
 parallel 3D FFT for charge:
    minimum data exchange during FFTs selected (reduces bandwidth)


 total amount of memory used by VASP on root node    48911. kBytes
========================================================================

   base      :      30000. kBytes
   nonlr-proj:       1551. kBytes
   fftplans  :       3114. kBytes
   grid      :       5102. kBytes
   one-center:         15. kBytes
   wavefun   :       9129. kBytes
 
     INWAV:  cpu time    0.0000: real time    0.0003
 Broyden mixing: mesh for mixing (old mesh)
   NGX = 35   NGY = 35   NGZ = 35
  (NGX  =108   NGY  =108   NGZ  =108)
  gives a total of  42875 points

 initial charge density was supplied:
 charge density of overlapping atoms calculated
 number of electron      60.0000000 magnetization 
 keeping initial charge density in first step


--------------------------------------------------------------------------------------------------------


 Maximum index for non-local projection operator          771
 Maximum index for augmentation-charges         2854 (set IRDMAX)


--------------------------------------------------------------------------------------------------------


 First call to EWALD:  gamma=   0.327
 Maximum number of real-space cells 4x 4x 4
 Maximum number of reciprocal cells 5x 5x 5

 FEWALD executed in parallel
    FEWALD:  cpu time    0.0021: real time    0.0022


----------------------------------------- Iteration    1(   1)  ---------------------------------------


    POTLOK:  cpu time    0.0545: real time    0.0546
    SETDIJ:  cpu time    0.0068: real time    0.0068
     EDDAV:  cpu time    7.0312: real time    7.0277
       DOS:  cpu time    0.0071: real time    0.0071
    --------------------------------------------
      LOOP:  cpu time    7.1019: real time    7.1551

 eigenvalue-minimisations  :  6460
 total energy-change (2. order) : 0.4641497E+03  (-0.3855967E+04)
 number of electron      60.0000000 magnetization 
 augmentation part       60.0000000 magnetization 

 Free energy of the ion-electron system (eV)
  ---------------------------------------------------
  alpha Z        PSCENC =       190.81641411
  Ewald energy   TEWEN  =     -5206.36695544
  -Hartree energ DENC   =     -3673.25174797
  -exchange      EXHF   =         0.00000000
  -V(xc)+E(xc)   XCENC  =       227.44086892
  PAW double counting   =      7404.97912102    -7555.84706289
  entropy T*S    EENTRO =         0.00009715
  eigenvalues    EBANDS =      -971.40862371
  atomic energy  EATOM  =     10047.78760332
  Solvation  Ediel_sol  =         0.00000000
  ---------------------------------------------------
  free energy    TOTEN  =       464.14971450 eV

  energy without entropy =      464.14961735  energy(sigma->0) =      464.14969021


--------------------------------------------------------------------------------------------------------




----------------------------------------- Iteration    1(   2)  ---------------------------------------


     EDDAV:  cpu time    7.0009: real time    6.9980
       DOS:  cpu time    0.0058: real time    0.0067
    --------------------------------------------
      LOOP:  cpu time    7.0081: real time    7.0907

 eigenvalue-minimisations  :  6470
 total energy-change (2. order) :-0.4551999E+03  (-0.4434934E+03)
 number of electron      60.0000000 magnetization 
 augmentation part       60.0000000 magnetization 

 Free energy of the ion-electron system (eV)
  ---------------------------------------------------
  alpha Z        PSCENC =       190.81641411
  Ewald energy   TEWEN  =     -5206.36695544
  -Hartree energ DENC   =     -3673.25174797
  -exchange      EXHF   =         0.00000000
  -V(xc)+E(xc)   XCENC  =       227.44086892
  PAW double counting   =      7404.97912102    -7555.84706289
  entropy T*S    EENTRO =        -0.00100217
  eigenvalues    EBANDS =     -1426.60741933
  atomic energy  EATOM  =     10047.78760332
  Solvation  Ediel_sol  =         0.00000000
  ---------------------------------------------------
  free energy    TOTEN  =         8.94981955 eV

  energy without entropy =        8.95082172  energy(sigma->0) =        8.95007009


--------------------------------------------------------------------------------------------------------




----------------------------------------- Iteration    1(   3)  ---------------------------------------


     EDDAV:  cpu time    6.3072: real time    6.3147
       DOS:  cpu time    0.0052: real time    0.0060
    --------------------------------------------
      LOOP:  cpu time    6.3137: real time    6.4173

 eigenvalue-minimisations  :  5638
 total energy-change (2. order) :-0.2904269E+02  (-0.2835506E+02)
 number of electron      60.0000000 magnetization 
 augmentation part       60.0000000 magnetization 

 Free energy of the ion-electron system (eV)
  ---------------------------------------------------
  alpha Z        PSCENC =       190.81641411
  Ewald energy   TEWEN  =     -5206.36695544
  -Hartree energ DENC   =     -3673.25174797
  -exchange      EXHF   =         0.00000000
  -V(xc)+E(xc)   XCENC  =       227.44086892
  PAW double counting   =      7404.97912102    -7555.84706289
  entropy T*S    EENTRO =        -0.00049482
  eigenvalues    EBANDS =     -1455.65061170
  atomic energy  EATOM  =     10047.78760332
  Solvation  Ediel_sol  =         0.00000000
  ---------------------------------------------------
  free energy    TOTEN  =       -20.09286547 eV

  energy without entropy =      -20.09237065  energy(sigma->0) =      -20.09274176


--------------------------------------------------------------------------------------------------------




----------------------------------------- Iteration    1(   4)  ---------------------------------------


     EDDAV:  cpu time    6.9683: real time    6.9655
       DOS:  cpu time    0.0065: real time    0.0065
    --------------------------------------------
      LOOP:  cpu time    6.9758: real time    7.0780

 eigenvalue-minimisations  :  6430
 total energy-change (2. order) :-0.9153537E+00  (-0.9148568E+00)
 number of electron      60.0000000 magnetization 
 augmentation part       60.0000000 magnetization 

 Free energy of the ion-electron system (eV)
  ---------------------------------------------------
  alpha Z        PSCENC =       190.81641411
  Ewald energy   TEWEN  =     -5206.36695544
  -Hartree energ DENC   =     -3673.25174797
  -exchange      EXHF   =         0.00000000
  -V(xc)+E(xc)   XCENC  =       227.44086892
  PAW double counting   =      7404.97912102    -7555.84706289
  entropy T*S    EENTRO =         0.00017892
  eigenvalues    EBANDS =     -1456.56663913
  atomic energy  EATOM  =     10047.78760332
  Solvation  Ediel_sol  =         0.00000000
  ---------------------------------------------------
  free energy    TOTEN  =       -21.00821916 eV

  energy without entropy =      -21.00839807  energy(sigma->0) =      -21.00826388


--------------------------------------------------------------------------------------------------------




----------------------------------------- Iteration    1(   5)  ---------------------------------------


     EDDAV:  cpu time    7.8373: real time    7.8336
       DOS:  cpu time    0.0063: real time    0.0063
    CHARGE:  cpu time    0.5257: real time    0.5255
    MIXING:  cpu time    0.0020: real time    0.0021
    --------------------------------------------
      LOOP:  cpu time    8.3720: real time    8.4776

 eigenvalue-minimisations  :  7430
 total energy-change (2. order) :-0.6496766E-01  (-0.6481476E-01)
 number of electron      59.9999984 magnetization 
 augmentation part       11.7739227 magnetization 

 Broyden mixing:
  rms(total) = 0.98267E+00    rms(broyden)= 0.98265E+00
  rms(prec ) = 0.11507E+01
  weight for this iteration     100.00

 Free energy of the ion-electron system (eV)
  ---------------------------------------------------
  alpha Z        PSCENC =       190.81641411
  Ewald energy   TEWEN  =     -5206.36695544
  -Hartree energ DENC   =     -3673.25174797
  -exchange      EXHF   =         0.00000000
  -V(xc)+E(xc)   XCENC  =       227.44086892
  PAW double counting   =      7404.97912102    -7555.84706289
  entropy T*S    EENTRO =        -0.00055122
  eigenvalues    EBANDS =     -1456.63087665
  atomic energy  EATOM  =     10047.78760332
  Solvation  Ediel_sol  =         0.00000000
  ---------------------------------------------------
  free energy    TOTEN  =       -21.07318682 eV

  energy without entropy =      -21.07263560  energy(sigma->0) =      -21.07304901


--------------------------------------------------------------------------------------------------------




----------------------------------------- Iteration    1(   6)  ---------------------------------------


    POTLOK:  cpu time    0.0529: real time    0.0529
    SETDIJ:  cpu time    0.0051: real time    0.0051
     EDDAV:  cpu time    6.0248: real time    6.0215
       DOS:  cpu time    0.0063: real time    0.0063
    CHARGE:  cpu time    0.5132: real time    0.5130
    MIXING:  cpu time    0.0019: real time    0.0019
    --------------------------------------------
      LOOP:  cpu time    6.6049: real time    6.6931

 eigenvalue-minimisations  :  5306
 total energy-change (2. order) : 0.9892186E+00  (-0.2625176E+00)
 number of electron      59.9999984 magnetization 
 augmentation part       11.9459715 magnetization 

 Broyden mixing:
  rms(total) = 0.69367E+00    rms(broyden)= 0.69367E+00
  rms(prec ) = 0.70925E+00
  weight for this iteration     100.00

 eigenvalues of (default mixing * dielectric matrix)
  average eigenvalue GAMMA=   2.1503
  2.1503

 Free energy of the ion-electron system (eV)
  ---------------------------------------------------
  alpha Z        PSCENC =       190.81641411
  Ewald energy   TEWEN  =     -5206.36695544
  -Hartree energ DENC   =     -3647.30556740
  -exchange      EXHF   =         0.00000000
  -V(xc)+E(xc)   XCENC  =       227.54734170
  PAW double counting   =      7303.71596832    -7452.95662612
  entropy T*S    EENTRO =        -0.00033434
  eigenvalues    EBANDS =     -1483.32181230
  atomic energy  EATOM  =     10047.78760332
  Solvation  Ediel_sol  =         0.00000000
  ---------------------------------------------------
  free energy    TOTEN  =       -20.08396817 eV

  energy without entropy =      -20.08363383  energy(sigma->0) =      -20.08388459


--------------------------------------------------------------------------------------------------------




----------------------------------------- Iteration    1(   7)  ---------------------------------------


    POTLOK:  cpu time    0.0522: real time    0.0521
    SETDIJ:  cpu time    0.0051: real time    0.0051
     EDDAV:  cpu time    6.0484: real time    6.0452
       DOS:  cpu time    0.0062: real time    0.0062
    CHARGE:  cpu time    0.5125: real time    0.5121
    MIXING:  cpu time    0.0018: real time    0.0018
    --------------------------------------------
      LOOP:  cpu time    6.6269: real time    6.7213

 eigenvalue-minimisations  :  5348
 total energy-change (2. order) :-0.7425092E-02  (-0.3475111E-01)
 number of electron      59.9999984 magnetization 
 augmentation part       11.9500200 magnetization 

 Broyden mixing:
  rms(total) = 0.34882E+00    rms(broyden)= 0.34882E+00
  rms(prec ) = 0.35416E+00
  weight for this iteration     100.00

 eigenvalues of (default mixing * dielectric matrix)
  average eigenvalue GAMMA=   1.8099
  1.0408  2.5790

 Free energy of the ion-electron system (eV)
  ---------------------------------------------------
  alpha Z        PSCENC =       190.81641411
  Ewald energy   TEWEN  =     -5206.36695544
  -Hartree energ DENC   =     -3645.53351797
  -exchange      EXHF   =         0.00000000
  -V(xc)+E(xc)   XCENC  =       227.65061775
  PAW double counting   =      7318.50213076    -7468.70216839
  entropy T*S    EENTRO =        -0.00073937
  eigenvalues    EBANDS =     -1484.24477803
  atomic energy  EATOM  =     10047.78760332
  Solvation  Ediel_sol  =         0.00000000
  ---------------------------------------------------
  free energy    TOTEN  =       -20.09139326 eV

  energy without entropy =      -20.09065389  energy(sigma->0) =      -20.09120842


--------------------------------------------------------------------------------------------------------




----------------------------------------- Iteration    1(   8)  ---------------------------------------


    POTLOK:  cpu time    0.0517: real time    0.0522
    SETDIJ:  cpu time    0.0051: real time    0.0051
     EDDAV:  cpu time    6.0807: real time    6.0773
       DOS:  cpu time    0.0063: real time    0.0063
    CHARGE:  cpu time    0.5133: real time    0.5130
    MIXING:  cpu time    0.0020: real time    0.0020
    --------------------------------------------
      LOOP:  cpu time    6.6602: real time    6.7381

 eigenvalue-minimisations  :  5390
 total energy-change (2. order) :-0.7597215E-02  (-0.6265875E-02)
 number of electron      59.9999984 magnetization 
 augmentation part       11.9420330 magnetization 

 Broyden mixing:
  rms(total) = 0.22930E-01    rms(broyden)= 0.22930E-01
  rms(prec ) = 0.30338E-01
  weight for this iteration     100.00

 eigenvalues of (default mixing * dielectric matrix)
  average eigenvalue GAMMA=   1.5306
  2.4613  0.9358  1.1947

 Free energy of the ion-electron system (eV)
  ---------------------------------------------------
  alpha Z        PSCENC =       190.81641411
  Ewald energy   TEWEN  =     -5206.36695544
  -Hartree energ DENC   =     -3644.27793614
  -exchange      EXHF   =         0.00000000
  -V(xc)+E(xc)   XCENC  =       227.77703487
  PAW double counting   =      7339.69293708    -7491.02643243
  entropy T*S    EENTRO =        -0.00065447
  eigenvalues    EBANDS =     -1484.50100138
  atomic energy  EATOM  =     10047.78760332
  Solvation  Ediel_sol  =         0.00000000
  ---------------------------------------------------
  free energy    TOTEN  =       -20.09899048 eV

  energy without entropy =      -20.09833601  energy(sigma->0) =      -20.09882686


--------------------------------------------------------------------------------------------------------




----------------------------------------- Iteration    1(   9)  ---------------------------------------


    POTLOK:  cpu time    0.0522: real time    0.0526
    SETDIJ:  cpu time    0.0051: real time    0.0051
     EDDAV:  cpu time    7.6088: real time    7.6055
       DOS:  cpu time    0.0063: real time    0.0063
    CHARGE:  cpu time    0.5124: real time    0.5121
    MIXING:  cpu time    0.0025: real time    0.0025
    --------------------------------------------
      LOOP:  cpu time    8.1886: real time    8.2891

 eigenvalue-minimisations  :  7154
 total energy-change (2. order) : 0.4351193E-03  (-0.5517874E-03)
 number of electron      59.9999984 magnetization 
 augmentation part       11.9336236 magnetization 

 Broyden mixing:
  rms(total) = 0.10181E-01    rms(broyden)= 0.10181E-01
  rms(prec ) = 0.12608E-01
  weight for this iteration     100.00

 eigenvalues of (default mixing * dielectric matrix)
  average eigenvalue GAMMA=   1.5284
  2.5794  0.9814  1.1132  1.4396

 Free energy of the ion-electron system (eV)
  ---------------------------------------------------
  alpha Z        PSCENC =       190.81641411
  Ewald energy   TEWEN  =     -5206.36695544
  -Hartree energ DENC   =     -3644.30890855
  -exchange      EXHF   =         0.00000000
  -V(xc)+E(xc)   XCENC  =       227.77175351
  PAW double counting   =      7344.98310906    -7496.35379462
  entropy T*S    EENTRO =        -0.00058872
  eigenvalues    EBANDS =     -1484.42718803
  atomic energy  EATOM  =     10047.78760332
  Solvation  Ediel_sol  =         0.00000000
  ---------------------------------------------------
  free energy    TOTEN  =       -20.09855536 eV

  energy without entropy =      -20.09796664  energy(sigma->0) =      -20.09840818


--------------------------------------------------------------------------------------------------------




----------------------------------------- Iteration    1(  10)  ---------------------------------------


    POTLOK:  cpu time    0.0527: real time    0.0527
    SETDIJ:  cpu time    0.0053: real time    0.0053
     EDDAV:  cpu time    6.0870: real time    6.0838
       DOS:  cpu time    0.0063: real time    0.0063
    CHARGE:  cpu time    0.5143: real time    0.5140
    MIXING:  cpu time    0.0022: real time    0.0022
    --------------------------------------------
      LOOP:  cpu time    6.6684: real time    6.7939

 eigenvalue-minimisations  :  5380
 total energy-change (2. order) :-0.2786902E-03  (-0.1355657E-03)
 number of electron      59.9999984 magnetization 
 augmentation part       11.9318200 magnetization 

 Broyden mixing:
  rms(total) = 0.44511E-02    rms(broyden)= 0.44511E-02
  rms(prec ) = 0.56324E-02
  weight for this iteration     100.00

 eigenvalues of (default mixing * dielectric matrix)
  average eigenvalue GAMMA=   1.5723
  2.5546  2.1613  0.9553  0.9553  1.2350

 Free energy of the ion-electron system (eV)
  ---------------------------------------------------
  alpha Z        PSCENC =       190.81641411
  Ewald energy   TEWEN  =     -5206.36695544
  -Hartree energ DENC   =     -3644.33761071
  -exchange      EXHF   =         0.00000000
  -V(xc)+E(xc)   XCENC  =       227.77976031
  PAW double counting   =      7346.70192799    -7498.08655324
  entropy T*S    EENTRO =        -0.00060766
  eigenvalues    EBANDS =     -1484.39281273
  atomic energy  EATOM  =     10047.78760332
  Solvation  Ediel_sol  =         0.00000000
  ---------------------------------------------------
  free energy    TOTEN  =       -20.09883405 eV

  energy without entropy =      -20.09822639  energy(sigma->0) =      -20.09868213


--------------------------------------------------------------------------------------------------------




----------------------------------------- Iteration    1(  11)  ---------------------------------------


    POTLOK:  cpu time    0.0523: real time    0.0523
    SETDIJ:  cpu time    0.0051: real time    0.0051
     EDDAV:  cpu time    6.5233: real time    6.5198
       DOS:  cpu time    0.0064: real time    0.0063
    CHARGE:  cpu time    0.5176: real time    0.5175
    MIXING:  cpu time    0.0023: real time    0.0023
    --------------------------------------------
      LOOP:  cpu time    7.1076: real time    7.1955

 eigenvalue-minimisations  :  5880
 total energy-change (2. order) :-0.5922943E-04  (-0.2252771E-04)
 number of electron      59.9999984 magnetization 
 augmentation part       11.9323755 magnetization 

 Broyden mixing:
  rms(total) = 0.12226E-02    rms(broyden)= 0.12226E-02
  rms(prec ) = 0.16064E-02
  weight for this iteration     100.00

 eigenvalues of (default mixing * dielectric matrix)
  average eigenvalue GAMMA=   1.5712
  2.7056  2.3829  0.9462  0.9462  1.2230  1.2230

 Free energy of the ion-electron system (eV)
  ---------------------------------------------------
  alpha Z        PSCENC =       190.81641411
  Ewald energy   TEWEN  =     -5206.36695544
  -Hartree energ DENC   =     -3644.22958854
  -exchange      EXHF   =         0.00000000
  -V(xc)+E(xc)   XCENC  =       227.78271456
  PAW double counting   =      7346.73433914    -7498.08984433
  entropy T*S    EENTRO =        -0.00060808
  eigenvalues    EBANDS =     -1484.53296801
  atomic energy  EATOM  =     10047.78760332
  Solvation  Ediel_sol  =         0.00000000
  ---------------------------------------------------
  free energy    TOTEN  =       -20.09889328 eV

  energy without entropy =      -20.09828520  energy(sigma->0) =      -20.09874126


--------------------------------------------------------------------------------------------------------




----------------------------------------- Iteration    1(  12)  ---------------------------------------


    POTLOK:  cpu time    0.0518: real time    0.0523
    SETDIJ:  cpu time    0.0051: real time    0.0051
     EDDAV:  cpu time    7.5479: real time    7.5437
       DOS:  cpu time    0.0054: real time    0.0063
    CHARGE:  cpu time    0.5157: real time    0.5155
    MIXING:  cpu time    0.0024: real time    0.0024
    --------------------------------------------
      LOOP:  cpu time    8.1304: real time    8.2107

 eigenvalue-minimisations  :  7042
 total energy-change (2. order) :-0.1094501E-04  (-0.3925765E-05)
 number of electron      59.9999984 magnetization 
 augmentation part       11.9316426 magnetization 

 Broyden mixing:
  rms(total) = 0.59586E-03    rms(broyden)= 0.59584E-03
  rms(prec ) = 0.73312E-03
  weight for this iteration     100.00

 eigenvalues of (default mixing * dielectric matrix)
  average eigenvalue GAMMA=   1.6104
  2.7381  2.7381  1.7171  1.0697  1.0697  0.9701  0.9701

 Free energy of the ion-electron system (eV)
  ---------------------------------------------------
  alpha Z        PSCENC =       190.81641411
  Ewald energy   TEWEN  =     -5206.36695544
  -Hartree energ DENC   =     -3644.30182939
  -exchange      EXHF   =         0.00000000
  -V(xc)+E(xc)   XCENC  =       227.78473755
  PAW double counting   =      7347.27336114    -7498.63649171
  entropy T*S    EENTRO =        -0.00060467
  eigenvalues    EBANDS =     -1484.45513914
  atomic energy  EATOM  =     10047.78760332
  Solvation  Ediel_sol  =         0.00000000
  ---------------------------------------------------
  free energy    TOTEN  =       -20.09890422 eV

  energy without entropy =      -20.09829955  energy(sigma->0) =      -20.09875306


--------------------------------------------------------------------------------------------------------




----------------------------------------- Iteration    1(  13)  ---------------------------------------


    POTLOK:  cpu time    0.0521: real time    0.0521
    SETDIJ:  cpu time    0.0051: real time    0.0051
     EDDAV:  cpu time    6.2886: real time    6.2856
       DOS:  cpu time    0.0056: real time    0.0065
    --------------------------------------------
      LOOP:  cpu time    6.3530: real time    6.4625

 eigenvalue-minimisations  :  5608
 total energy-change (2. order) :-0.4574413E-06  (-0.4448969E-06)
 number of electron      59.9999984 magnetization 
 augmentation part       11.9316426 magnetization 

 Free energy of the ion-electron system (eV)
  ---------------------------------------------------
  alpha Z        PSCENC =       190.81641411
  Ewald energy   TEWEN  =     -5206.36695544
  -Hartree energ DENC   =     -3644.33738884
  -exchange      EXHF   =         0.00000000
  -V(xc)+E(xc)   XCENC  =       227.78588713
  PAW double counting   =      7347.16565634    -7498.52667908
  entropy T*S    EENTRO =        -0.00060457
  eigenvalues    EBANDS =     -1484.42283766
  atomic energy  EATOM  =     10047.78760332
  Solvation  Ediel_sol  =         0.00000000
  ---------------------------------------------------
  free energy    TOTEN  =       -20.09890468 eV

  energy without entropy =      -20.09830011  energy(sigma->0) =      -20.09875354


--------------------------------------------------------------------------------------------------------




 average (electrostatic) potential at core
  the test charge radii are     1.0856  1.0808
  (the norm of the test charge is              1.0000)
       1-129.3088       2-129.3088       3 -53.9814       4 -54.1139       5 -54.1139
 
 
 
 E-fermi :   3.6982     XC(G=0):  -9.0273     alpha+bet : -9.1186


 k-point     1 :       0.0000    0.0000    0.0000
  band No.  band energies     occupation 
      1     -87.8624      2.00000
      2     -87.8619      2.00000
      3     -87.8618      2.00000
      4     -87.8617      2.00000
      5     -87.8615      2.00000
      6     -87.8615      2.00000
      7     -19.1690      2.00000
      8     -19.1690      2.00000
      9     -19.1682      2.00000
     10     -19.1682      2.00000
     11     -19.1666      2.00000
     12     -19.1650      2.00000
     13     -19.1546      2.00000
     14     -19.1546      2.00000
     15     -19.1536      2.00000
     16     -19.1536      2.00000
     17      -9.8590      2.00000
     18      -9.3050      2.00000
     19      -8.4303      2.00000
     20      -5.6552      2.00000
     21      -4.9109      2.00000
     22       1.9428      2.00000
     23       2.0599      2.00000
     24       2.2496      2.00000
     25       2.2496      2.00000
     26       2.3473      2.00000
     27       2.3473      2.00000
     28       2.8506      2.00000
     29       2.8506      2.00000
     30       3.6723      1.27055
     31       4.1292      0.00900
     32       5.3579      0.00000
     33       5.3579      0.00000
     34       5.9194      0.00000
     35       6.4201      0.00000
     36       6.4201      0.00000
     37       9.8885      0.00000
     38      10.3990      0.00000

 k-point     2 :       0.1250    0.0000    0.0000
  band No.  band energies     occupation 
      1     -87.8627      2.00000
      2     -87.8622      2.00000
      3     -87.8618      2.00000
      4     -87.8616      2.00000
      5     -87.8615      2.00000
      6     -87.8614      2.00000
      7     -19.1700      2.00000
      8     -19.1691      2.00000
      9     -19.1660      2.00000
     10     -19.1654      2.00000
     11     -19.1648      2.00000
     12     -19.1631      2.00000
     13     -19.1570      2.00000
     14     -19.1554      2.00000
     15     -19.1554      2.00000
     16     -19.1540      2.00000
     17      -9.7335      2.00000
     18      -9.1965      2.00000
     19      -8.3694      2.00000
     20      -5.7273      2.00000
     21      -5.0699      2.00000
     22       1.2265      2.00000
     23       1.4170      2.00000
     24       1.8639      2.00000
     25       1.8867      2.00000
     26       2.3204      2.00000
     27       2.6545      2.00000
     28       2.8043      2.00000
     29       2.9745      1.99998
     30       3.2412      1.99278
     31       4.9195      0.00000
     32       5.5475      0.00000
     33       5.6841      0.00000
     34       5.9205      0.00000
     35       6.4923      0.00000
     36       6.7077      0.00000
     37       9.6225      0.00000
     38      10.1509      0.00000

 k-point     3 :       0.2500    0.0000    0.0000
  band No.  band energies     occupation 
      1     -87.8626      2.00000
      2     -87.8621      2.00000
      3     -87.8618      2.00000
      4     -87.8615      2.00000
      5     -87.8613      2.00000
      6     -87.8613      2.00000
      7     -19.1732      2.00000
      8     -19.1717      2.00000
      9     -19.1626      2.00000
     10     -19.1601      2.00000
     11     -19.1593      2.00000
     12     -19.1589      2.00000
     13     -19.1587      2.00000
     14     -19.1573      2.00000
     15     -19.1567      2.00000
     16     -19.1544      2.00000
     17      -9.3714      2.00000
     18      -8.8987      2.00000
     19      -8.2202      2.00000
     20      -5.9839      2.00000
     21      -5.5000      2.00000
     22       0.2264      2.00000
     23       0.8115      2.00000
     24       1.1542      2.00000
     25       1.3973      2.00000
     26       1.8631      2.00000
     27       2.3167      2.00000
     28       2.7815      2.00000
     29       2.8348      2.00000
     30       3.3193      1.99130
     31       5.0351      0.00000
     32       5.7759      0.00000
     33       5.9764      0.00000
     34       6.4970      0.00000
     35       6.9057      0.00000
     36       7.6034      0.00000
     37       8.7692      0.00000
     38      10.2683      0.00000

 k-point     4 :       0.3750    0.0000    0.0000
  band No.  band energies     occupation 
      1     -87.8626      2.00000
      2     -87.8623      2.00000
      3     -87.8615      2.00000
      4     -87.8615      2.00000
      5     -87.8613      2.00000
      6     -87.8613      2.00000
      7     -19.1770      2.00000
      8     -19.1749      2.00000
      9     -19.1660      2.00000
     10     -19.1627      2.00000
     11     -19.1580      2.00000
     12     -19.1554      2.00000
     13     -19.1550      2.00000
     14     -19.1533      2.00000
     15     -19.1522      2.00000
     16     -19.1520      2.00000
     17      -8.8320      2.00000
     18      -8.5255      2.00000
     19      -8.1032      2.00000
     20      -6.4146      2.00000
     21      -6.0201      2.00000
     22      -0.5792      2.00000
     23       0.5776      2.00000
     24       0.9238      2.00000
     25       1.0590      2.00000
     26       1.4891      2.00000
     27       1.6195      2.00000
     28       2.4793      2.00000
     29       2.8106      2.00000
     30       3.2177      1.99453
     31       4.8795      0.00000
     32       5.9362      0.00000
     33       6.2866      0.00000
     34       6.8200      0.00000
     35       7.4406      0.00000
     36       8.0010      0.00000
     37       8.3283      0.00000
     38      10.3370      0.00000

 k-point     5 :       0.5000    0.0000    0.0000
  band No.  band energies     occupation 
      1     -87.8626      2.00000
      2     -87.8626      2.00000
      3     -87.8617      2.00000
      4     -87.8617      2.00000
      5     -87.8615      2.00000
      6     -87.8615      2.00000
      7     -19.1789      2.00000
      8     -19.1767      2.00000
      9     -19.1673      2.00000
     10     -19.1639      2.00000
     11     -19.1586      2.00000
     12     -19.1556      2.00000
     13     -19.1533      2.00000
     14     -19.1514      2.00000
     15     -19.1498      2.00000
     16     -19.1496      2.00000
     17      -8.3428      2.00000
     18      -8.2976      2.00000
     19      -8.2827      2.00000
     20      -6.6405      2.00000
     21      -6.3111      2.00000
     22      -0.8726      2.00000
     23       0.7097      2.00000
     24       0.7301      2.00000
     25       0.9371      2.00000
     26       1.3543      2.00000
     27       1.3904      2.00000
     28       2.1859      2.00000
     29       2.7911      2.00000
     30       3.2084      1.99518
     31       4.8097      0.00000
     32       5.8929      0.00000
     33       6.6526      0.00000
     34       6.8034      0.00000
     35       7.6422      0.00000
     36       7.9044      0.00000
     37       8.1955      0.00000
     38      10.1209      0.00000

 k-point     6 :       0.1250    0.1250    0.0000
  band No.  band energies     occupation 
      1     -87.8627      2.00000
      2     -87.8621      2.00000
      3     -87.8619      2.00000
      4     -87.8618      2.00000
      5     -87.8616      2.00000
      6     -87.8614      2.00000
      7     -19.1700      2.00000
      8     -19.1692      2.00000
      9     -19.1661      2.00000
     10     -19.1654      2.00000
     11     -19.1647      2.00000
     12     -19.1632      2.00000
     13     -19.1569      2.00000
     14     -19.1555      2.00000
     15     -19.1554      2.00000
     16     -19.1539      2.00000
     17      -9.7308      2.00000
     18      -9.2035      2.00000
     19      -8.3631      2.00000
     20      -5.7336      2.00000
     21      -5.0660      2.00000
     22       1.2382      2.00000
     23       1.4638      2.00000
     24       1.8577      2.00000
     25       1.8605      2.00000
     26       2.3197      2.00000
     27       2.4353      2.00000
     28       2.8153      2.00000
     29       3.1535      1.99808
     30       3.3193      1.99130
     31       4.8328      0.00000
     32       5.4479      0.00000
     33       5.6224      0.00000
     34       6.0127      0.00000
     35       6.5621      0.00000
     36       6.7503      0.00000
     37       9.6931      0.00000
     38      10.0705      0.00000

 k-point     7 :       0.2500    0.1250    0.0000
  band No.  band energies     occupation 
      1     -87.8626      2.00000
      2     -87.8623      2.00000
      3     -87.8616      2.00000
      4     -87.8616      2.00000
      5     -87.8613      2.00000
      6     -87.8613      2.00000
      7     -19.1706      2.00000
      8     -19.1694      2.00000
      9     -19.1648      2.00000
     10     -19.1641      2.00000
     11     -19.1601      2.00000
     12     -19.1597      2.00000
     13     -19.1581      2.00000
     14     -19.1578      2.00000
     15     -19.1558      2.00000
     16     -19.1545      2.00000
     17      -9.4845      2.00000
     18      -9.0042      2.00000
     19      -8.2536      2.00000
     20      -5.8913      2.00000
     21      -5.3718      2.00000
     22       0.6466      2.00000
     23       0.8465      2.00000
     24       1.2019      2.00000
     25       1.6338      2.00000
     26       1.8988      2.00000
     27       2.0843      2.00000
     28       2.8976      2.00000
     29       3.2384      1.99299
     30       3.3572      1.99968
     31       5.1315      0.00000
     32       5.3940      0.00000
     33       5.8109      0.00000
     34       6.5445      0.00000
     35       6.9806      0.00000
     36       7.2479      0.00000
     37       9.4319      0.00000
     38       9.5058      0.00000

 k-point     8 :       0.3750    0.1250    0.0000
  band No.  band energies     occupation 
      1     -87.8625      2.00000
      2     -87.8622      2.00000
      3     -87.8616      2.00000
      4     -87.8614      2.00000
      5     -87.8613      2.00000
      6     -87.8611      2.00000
      7     -19.1732      2.00000
      8     -19.1713      2.00000
      9     -19.1638      2.00000
     10     -19.1616      2.00000
     11     -19.1601      2.00000
     12     -19.1591      2.00000
     13     -19.1575      2.00000
     14     -19.1557      2.00000
     15     -19.1532      2.00000
     16     -19.1524      2.00000
     17      -9.0285      2.00000
     18      -8.6592      2.00000
     19      -8.1076      2.00000
     20      -6.2286      2.00000
     21      -5.8829      2.00000
     22      -0.1134      2.00000
     23       0.3461      2.00000
     24       0.7886      2.00000
     25       1.0995      2.00000
     26       1.4141      2.00000
     27       2.0638      2.00000
     28       2.7160      2.00000
     29       2.8297      2.00000
     30       3.1902      1.99634
     31       5.4177      0.00000
     32       5.7442      0.00000
     33       6.0389      0.00000
     34       6.7822      0.00000
     35       7.3709      0.00000
     36       7.9304      0.00000
     37       8.8893      0.00000
     38      10.0364      0.00000

 k-point     9 :       0.5000    0.1250    0.0000
  band No.  band energies     occupation 
      1     -87.8624      2.00000
      2     -87.8624      2.00000
      3     -87.8616      2.00000
      4     -87.8615      2.00000
      5     -87.8614      2.00000
      6     -87.8613      2.00000
      7     -19.1758      2.00000
      8     -19.1737      2.00000
      9     -19.1659      2.00000
     10     -19.1628      2.00000
     11     -19.1597      2.00000
     12     -19.1564      2.00000
     13     -19.1548      2.00000
     14     -19.1531      2.00000
     15     -19.1513      2.00000
     16     -19.1504      2.00000
     17      -8.4717      2.00000
     18      -8.3397      2.00000
     19      -8.1031      2.00000
     20      -6.6034      2.00000
     21      -6.3395      2.00000
     22      -0.6902      2.00000
     23       0.3096      2.00000
     24       0.5488      2.00000
     25       0.7182      2.00000
     26       1.5396      2.00000
     27       1.8203      2.00000
     28       2.3076      2.00000
     29       2.4720      2.00000
     30       3.0042      1.99995
     31       5.5350      0.00000
     32       6.0304      0.00000
     33       6.4156      0.00000
     34       7.0873      0.00000
     35       7.2391      0.00000
     36       8.0434      0.00000
     37       8.7000      0.00000
     38      10.0196      0.00000

 k-point    10 :      -0.3750    0.1250    0.0000
  band No.  band energies     occupation 
      1     -87.8623      2.00000
      2     -87.8623      2.00000
      3     -87.8616      2.00000
      4     -87.8615      2.00000
      5     -87.8613      2.00000
      6     -87.8613      2.00000
      7     -19.1758      2.00000
      8     -19.1737      2.00000
      9     -19.1659      2.00000
     10     -19.1628      2.00000
     11     -19.1596      2.00000
     12     -19.1563      2.00000
     13     -19.1547      2.00000
     14     -19.1531      2.00000
     15     -19.1512      2.00000
     16     -19.1505      2.00000
     17      -8.4888      2.00000
     18      -8.3110      2.00000
     19      -8.1133      2.00000
     20      -6.6152      2.00000
     21      -6.3287      2.00000
     22      -0.7244      2.00000
     23       0.3425      2.00000
     24       0.5629      2.00000
     25       0.8446      2.00000
     26       1.3881      2.00000
     27       1.8381      2.00000
     28       2.1624      2.00000
     29       2.5835      2.00000
     30       3.0136      1.99993
     31       5.5251      0.00000
     32       5.9680      0.00000
     33       6.6263      0.00000
     34       7.0205      0.00000
     35       7.3351      0.00000
     36       7.8855      0.00000
     37       8.6244      0.00000
     38      10.2116      0.00000

 k-point    11 :      -0.2500    0.1250    0.0000
  band No.  band energies     occupation 
      1     -87.8624      2.00000
      2     -87.8623      2.00000
      3     -87.8615      2.00000
      4     -87.8614      2.00000
      5     -87.8613      2.00000
      6     -87.8612      2.00000
      7     -19.1732      2.00000
      8     -19.1713      2.00000
      9     -19.1638      2.00000
     10     -19.1617      2.00000
     11     -19.1602      2.00000
     12     -19.1590      2.00000
     13     -19.1574      2.00000
     14     -19.1557      2.00000
     15     -19.1532      2.00000
     16     -19.1524      2.00000
     17      -9.0423      2.00000
     18      -8.6237      2.00000
     19      -8.1347      2.00000
     20      -6.2095      2.00000
     21      -5.8967      2.00000
     22      -0.1873      2.00000
     23       0.4325      2.00000
     24       0.9485      2.00000
     25       1.1445      2.00000
     26       1.2379      2.00000
     27       1.9301      2.00000
     28       2.6602      2.00000
     29       2.9901      1.99997
     30       3.1757      1.99712
     31       5.4277      0.00000
     32       5.6216      0.00000
     33       6.1371      0.00000
     34       6.8554      0.00000
     35       7.4508      0.00000
     36       7.8114      0.00000
     37       8.8091      0.00000
     38      10.0112      0.00000

 k-point    12 :      -0.1250    0.1250    0.0000
  band No.  band energies     occupation 
      1     -87.8625      2.00000
      2     -87.8621      2.00000
      3     -87.8616      2.00000
      4     -87.8615      2.00000
      5     -87.8613      2.00000
[...]
     28       2.6106      2.00000
     29       2.9369      1.99999
     30       3.1182      1.99906
     31       5.5739      0.00000
     32       5.9050      0.00000
     33       6.1349      0.00000
     34       7.0324      0.00000
     35       7.8404      0.00000
     36       8.0824      0.00000
     37       9.7669      0.00000
     38       9.8297      0.00000

 k-point    59 :      -0.3750   -0.3750    0.2500
  band No.  band energies     occupation 
      1     -87.8626      2.00000
      2     -87.8624      2.00000
      3     -87.8615      2.00000
      4     -87.8615      2.00000
      5     -87.8613      2.00000
      6     -87.8612      2.00000
      7     -19.1772      2.00000
      8     -19.1750      2.00000
      9     -19.1659      2.00000
     10     -19.1626      2.00000
     11     -19.1581      2.00000
     12     -19.1552      2.00000
     13     -19.1549      2.00000
     14     -19.1534      2.00000
     15     -19.1522      2.00000
     16     -19.1520      2.00000
     17      -8.7916      2.00000
     18      -8.5935      2.00000
     19      -8.0790      2.00000
     20      -6.3707      2.00000
     21      -6.0620      2.00000
     22      -0.4627      2.00000
     23       0.2696      2.00000
     24       0.9260      2.00000
     25       1.0062      2.00000
     26       1.5997      2.00000
     27       1.7988      2.00000
     28       2.6884      2.00000
     29       2.7186      2.00000
     30       3.0739      1.99967
     31       5.0153      0.00000
     32       5.9289      0.00000
     33       6.0417      0.00000
     34       6.7567      0.00000
     35       7.3705      0.00000
     36       8.2774      0.00000
     37       8.3845      0.00000
     38      10.1536      0.00000

 k-point    60 :       0.3750    0.3750    0.3750
  band No.  band energies     occupation 
      1     -87.8628      2.00000
      2     -87.8620      2.00000
      3     -87.8620      2.00000
      4     -87.8620      2.00000
      5     -87.8616      2.00000
      6     -87.8616      2.00000
      7     -19.1688      2.00000
      8     -19.1688      2.00000
      9     -19.1686      2.00000
     10     -19.1686      2.00000
     11     -19.1666      2.00000
     12     -19.1652      2.00000
     13     -19.1549      2.00000
     14     -19.1549      2.00000
     15     -19.1537      2.00000
     16     -19.1537      2.00000
     17      -9.7991      2.00000
     18      -9.4389      2.00000
     19      -8.3101      2.00000
     20      -5.8369      2.00000
     21      -4.7609      2.00000
     22       1.6552      2.00000
     23       2.2022      2.00000
     24       2.2022      2.00000
     25       2.4289      2.00000
     26       2.4480      2.00000
     27       2.4480      2.00000
     28       2.7785      2.00000
     29       2.7785      2.00000
     30       3.3985      2.02208
     31       4.3747      0.00008
     32       5.4870      0.00000
     33       5.4870      0.00000
     34       5.8363      0.00000
     35       6.2781      0.00000
     36       6.2781      0.00000
     37       9.8892      0.00000
     38      10.5882      0.00000

 k-point    61 :       0.5000    0.3750    0.3750
  band No.  band energies     occupation 
      1     -87.8628      2.00000
      2     -87.8620      2.00000
      3     -87.8618      2.00000
      4     -87.8615      2.00000
      5     -87.8615      2.00000
      6     -87.8611      2.00000
      7     -19.1699      2.00000
      8     -19.1691      2.00000
      9     -19.1661      2.00000
     10     -19.1653      2.00000
     11     -19.1645      2.00000
     12     -19.1634      2.00000
     13     -19.1567      2.00000
     14     -19.1554      2.00000
     15     -19.1553      2.00000
     16     -19.1539      2.00000
     17      -9.6679      2.00000
     18      -9.3391      2.00000
     19      -8.2478      2.00000
     20      -5.8907      2.00000
     21      -4.9444      2.00000
     22       1.1419      2.00000
     23       1.6025      2.00000
     24       1.9299      2.00000
     25       1.9343      2.00000
     26       2.1683      2.00000
     27       2.2518      2.00000
     28       2.9055      2.00000
     29       3.1216      1.99899
     30       3.4378      2.05609
     31       4.7815      0.00000
     32       5.3677      0.00000
     33       5.6336      0.00000
     34       6.1504      0.00000
     35       6.5144      0.00000
     36       6.7460      0.00000
     37       9.7062      0.00000
     38      10.2559      0.00000

 k-point    62 :      -0.3750    0.3750    0.3750
  band No.  band energies     occupation 
      1     -87.8627      2.00000
      2     -87.8622      2.00000
      3     -87.8616      2.00000
      4     -87.8614      2.00000
      5     -87.8614      2.00000
      6     -87.8613      2.00000
      7     -19.1730      2.00000
      8     -19.1718      2.00000
      9     -19.1625      2.00000
     10     -19.1601      2.00000
     11     -19.1593      2.00000
     12     -19.1591      2.00000
     13     -19.1587      2.00000
     14     -19.1573      2.00000
     15     -19.1568      2.00000
     16     -19.1542      2.00000
     17      -9.3079      2.00000
     18      -9.0301      2.00000
     19      -8.1254      2.00000
     20      -6.0545      2.00000
     21      -5.4588      2.00000
     22       0.1255      2.00000
     23       0.8988      2.00000
     24       1.4068      2.00000
     25       1.4100      2.00000
     26       1.8293      2.00000
     27       2.0649      2.00000
     28       2.6466      2.00000
     29       2.8760      2.00000
     30       3.4579      2.07520
     31       4.8471      0.00000
     32       5.8294      0.00000
     33       6.1377      0.00000
     34       6.6021      0.00000
     35       7.0746      0.00000
     36       7.2941      0.00000
     37       8.9442      0.00000
     38      10.3299      0.00000

 k-point    63 :       0.5000    0.5000    0.3750
  band No.  band energies     occupation 
      1     -87.8628      2.00000
      2     -87.8621      2.00000
      3     -87.8617      2.00000
      4     -87.8616      2.00000
      5     -87.8616      2.00000
      6     -87.8612      2.00000
      7     -19.1698      2.00000
      8     -19.1691      2.00000
      9     -19.1662      2.00000
     10     -19.1653      2.00000
     11     -19.1645      2.00000
     12     -19.1634      2.00000
     13     -19.1568      2.00000
     14     -19.1556      2.00000
     15     -19.1554      2.00000
     16     -19.1538      2.00000
     17      -9.6634      2.00000
     18      -9.3469      2.00000
     19      -8.2424      2.00000
     20      -5.8958      2.00000
     21      -4.9419      2.00000
     22       1.1537      2.00000
     23       1.6980      2.00000
     24       1.9197      2.00000
     25       1.9284      2.00000
     26       2.0574      2.00000
     27       2.1717      2.00000
     28       2.9150      2.00000
     29       3.1953      1.99603
     30       3.5437      2.07381
     31       4.6782      0.00000
     32       5.3184      0.00000
     33       5.5761      0.00000
     34       6.1932      0.00000
     35       6.5797      0.00000
     36       6.7902      0.00000
     37       9.7853      0.00000
     38      10.1346      0.00000

 k-point    64 :      -0.3750    0.5000    0.3750
  band No.  band energies     occupation 
      1     -87.8627      2.00000
      2     -87.8624      2.00000
      3     -87.8617      2.00000
      4     -87.8615      2.00000
      5     -87.8614      2.00000
      6     -87.8614      2.00000
      7     -19.1707      2.00000
      8     -19.1694      2.00000
      9     -19.1647      2.00000
     10     -19.1643      2.00000
     11     -19.1600      2.00000
     12     -19.1598      2.00000
     13     -19.1584      2.00000
     14     -19.1578      2.00000
     15     -19.1558      2.00000
     16     -19.1545      2.00000
     17      -9.4221      2.00000
     18      -9.1329      2.00000
     19      -8.1556      2.00000
     20      -5.9932      2.00000
     21      -5.3015      2.00000
     22       0.4856      2.00000
     23       0.8232      2.00000
     24       1.4545      2.00000
     25       1.7629      2.00000
     26       2.0205      2.00000
     27       2.3353      2.00000
     28       2.3823      2.00000
     29       3.0219      1.99992
     30       3.2239      1.99408
     31       5.3795      0.00000
     32       5.7248      0.00000
     33       5.8862      0.00000
     34       6.4570      0.00000
     35       6.9145      0.00000
     36       7.0026      0.00000
     37       9.5789      0.00000
     38       9.8504      0.00000

 k-point    65 :       0.5000    0.5000    0.5000
  band No.  band energies     occupation 
      1     -87.8629      2.00000
      2     -87.8620      2.00000
      3     -87.8620      2.00000
      4     -87.8619      2.00000
      5     -87.8617      2.00000
      6     -87.8617      2.00000
      7     -19.1689      2.00000
      8     -19.1689      2.00000
      9     -19.1686      2.00000
     10     -19.1686      2.00000
     11     -19.1664      2.00000
     12     -19.1652      2.00000
     13     -19.1549      2.00000
     14     -19.1549      2.00000
     15     -19.1538      2.00000
     16     -19.1538      2.00000
     17      -9.7851      2.00000
     18      -9.4640      2.00000
     19      -8.2908      2.00000
     20      -5.8641      2.00000
     21      -4.7395      2.00000
     22       1.6286      2.00000
     23       2.1970      2.00000
     24       2.1970      2.00000
     25       2.4652      2.00000
     26       2.4652      2.00000
     27       2.4745      2.00000
     28       2.7632      2.00000
     29       2.7632      2.00000
     30       3.3563      1.99937
     31       4.4082      0.00003
     32       5.5135      0.00000
     33       5.5135      0.00000
     34       5.8207      0.00000
     35       6.2494      0.00000
     36       6.2494      0.00000
     37       9.8818      0.00000
     38      10.7579      0.00000


--------------------------------------------------------------------------------------------------------


 soft charge-density along one line, spin component           1
         0         1         2         3         4         5         6         7         8         9
 total charge-density along one line
 
 pseudopotential strength for first ion, spin component:           1
-65.089  -0.000  -0.000  12.134   0.000   0.000  -0.008  -0.039
 -0.000 -65.090  -0.000   0.000  12.134   0.000  -0.002  -0.007
 -0.000  -0.000 -65.089   0.000   0.000  12.134   0.002  -0.002
 12.134   0.000   0.000   4.110  -0.000  -0.000   0.001   0.007
  0.000  12.134   0.000  -0.000   4.110  -0.000   0.000   0.001
  0.000   0.000  12.134  -0.000  -0.000   4.110   0.000   0.000
 -0.008  -0.002   0.002   0.001   0.000   0.000 -17.518   0.000
 -0.039  -0.007  -0.002   0.007   0.001   0.000   0.000 -17.516
  0.002  -0.056   0.003  -0.000   0.009  -0.001  -0.002  -0.001
 -0.002  -0.012  -0.041   0.000   0.002   0.007   0.004  -0.002
  0.012  -0.001  -0.009  -0.001   0.000   0.002   0.002   0.004
 -0.008  -0.002   0.002   0.001   0.000   0.000 -17.010   0.000
 -0.037  -0.007  -0.002   0.007   0.001   0.000   0.000 -17.008
  0.002  -0.053   0.003  -0.000   0.009  -0.001  -0.002  -0.001
 -0.002  -0.011  -0.039   0.000   0.002   0.007   0.004  -0.002
  0.011  -0.001  -0.008  -0.001   0.000   0.001   0.002   0.004
  0.004   0.030   0.006   0.001   0.005   0.001  -0.000  -0.000
 -0.005  -0.043  -0.009  -0.001  -0.007  -0.002   0.000   0.000
 total augmentation occupancy for first ion, spin component:           1
  2.000  -0.000  -0.000   0.003   0.000   0.000   0.002   0.010  -0.001  -0.000   0.000  -0.002  -0.010   0.001   0.000  -0.001
 -0.000   2.000  -0.000   0.000   0.003   0.000  -0.000   0.001   0.009   0.001  -0.000   0.000  -0.001  -0.009  -0.001   0.000
 -0.000  -0.000   2.000   0.000   0.000   0.003   0.003  -0.000  -0.002   0.009   0.002  -0.003   0.000   0.002  -0.009  -0.002
  0.003   0.000   0.000   0.745  -0.000  -0.000  -0.080  -0.383   0.074   0.084  -0.255   0.079   0.380  -0.073  -0.082   0.250
  0.000   0.003   0.000  -0.000   0.742  -0.000   0.084   0.047   0.041   0.079   0.046  -0.082  -0.046  -0.036  -0.077  -0.045
  0.000   0.000   0.003  -0.000  -0.000   0.745  -0.337   0.084   0.125  -0.292  -0.058   0.332  -0.082  -0.123   0.291   0.058
  0.002  -0.000   0.003  -0.080   0.084  -0.337   4.427   0.178  -0.621   1.339   0.571  -2.387  -0.175   0.616  -1.329  -0.567
  0.010   0.001  -0.000  -0.383   0.047   0.084   0.178   5.242  -0.282  -0.719   1.184  -0.175  -3.192   0.280   0.714  -1.176
 -0.001   0.009  -0.002   0.074   0.041   0.125  -0.621  -0.282   3.203  -0.475  -0.338   0.616   0.280  -1.168   0.472   0.336
 -0.000   0.001   0.009   0.084   0.079  -0.292   1.339  -0.719  -0.475   4.460   0.083  -1.329   0.714   0.472  -2.415  -0.082
  0.000  -0.000   0.002  -0.255   0.046  -0.058   0.571   1.184  -0.338   0.083   3.689  -0.567  -1.176   0.336  -0.082  -1.655
 -0.002   0.000  -0.003   0.079  -0.082   0.332  -2.387  -0.175   0.616  -1.329  -0.567   2.345   0.173  -0.611   1.318   0.563
 -0.010  -0.001   0.000   0.380  -0.046  -0.082  -0.175  -3.192   0.280   0.714  -1.176   0.173   3.139  -0.278  -0.708   1.167
  0.001  -0.009   0.002  -0.073  -0.036  -0.123   0.616   0.280  -1.168   0.472   0.336  -0.611  -0.278   1.131  -0.468  -0.333
  0.000  -0.001  -0.009  -0.082  -0.077   0.291  -1.329   0.714   0.472  -2.415  -0.082   1.318  -0.708  -0.468   2.368   0.080
 -0.001   0.000  -0.002   0.250  -0.045   0.058  -0.567  -1.176   0.336  -0.082  -1.655   0.563   1.167  -0.333   0.080   1.618
  0.000   0.000   0.000  -0.006  -0.052  -0.011   0.001   0.005   0.021   0.008   0.001  -0.001  -0.005  -0.022  -0.008  -0.001
 -0.000  -0.000  -0.000   0.003   0.027   0.006   0.000   0.000   0.002   0.001   0.000  -0.000  -0.001  -0.002  -0.001  -0.000


------------------------ aborting loop because EDIFF is reached ----------------------------------------


    CHARGE:  cpu time    0.5121: real time    0.5119
    FORLOC:  cpu time    0.0042: real time    0.0042
    FORNL :  cpu time    1.7106: real time    1.7095
    STRESS:  cpu time    5.1387: real time    5.1362
    FORCOR:  cpu time    0.0562: real time    0.0562
    FORHAR:  cpu time    0.0149: real time    0.0149
    MIXING:  cpu time    0.0027: real time    0.0027
    OFIELD:  cpu time    0.0001: real time    0.0001

  FORCE on cell =-STRESS in cart. coord.  units (eV):
  Direction    XX          YY          ZZ          XY          YZ          ZX
  --------------------------------------------------------------------------------------
  Alpha Z   190.81641   190.81641   190.81641
  Ewald   -1284.72524 -1243.73943 -2677.90422   -37.63100  -180.45127  -303.74205
  Hartree  1606.79619  1642.44289   395.09767   -32.72926  -156.94499  -264.17569
  E(xc)    -307.81175  -307.81101  -307.83684    -0.00068    -0.00325    -0.00547
  Local   -1975.63846 -2052.25262   628.63173    70.34414   337.31760   567.78539
  n-local   346.22584   346.77397   345.95275     0.01229    -0.74683     0.14613
  augment   506.52117   506.51965   506.56797     0.00118     0.00606     0.01019
  Kinetic   909.32920   919.50166   915.66529     1.47544    -1.30530     1.42022
  Fock        0.00000     0.00000     0.00000     0.00000     0.00000     0.00000
  -------------------------------------------------------------------------------------
  Total      -3.10964    -3.11220    -3.02251     0.00235     0.01129     0.01900
  in kB     -31.23751   -31.26325   -30.36227     0.02365     0.11337     0.19082
  external pressure =      -30.95 kB  Pullay stress =        0.00 kB


 VOLUME and BASIS-vectors are now :
 -----------------------------------------------------------------------------
  energy-cutoff  :      441.00
  volume of cell :      159.49
      direct lattice vectors                 reciprocal lattice vectors
     4.171482000  0.000000000  9.566698000     0.239722957 -0.130546726  0.000000000
     1.995034000  3.663481000  9.566698000     0.000000000  0.272964429  0.000000000
     0.000000000  0.000000000 10.436617000    -0.219741429 -0.130546820  0.095816489

  length of vectors
    10.436616918 10.436616517 10.436617000     0.272964363  0.272964429  0.272964407


 FORCES acting on ions
    electron-ion (+dipol)            ewald-force                    non-local-force                 convergence-correction
 -----------------------------------------------------------------------------------------------
   -.972E+02 -.577E+02 -.466E+03   0.959E+02 0.570E+02 0.460E+03   0.134E+01 0.796E+00 0.643E+01   0.127E-02 0.757E-03 0.611E-02
   0.972E+02 0.577E+02 0.466E+03   -.959E+02 -.570E+02 -.460E+03   -.134E+01 -.796E+00 -.643E+01   -.127E-02 -.757E-03 -.611E-02
   -.575E-14 0.168E-14 -.184E-13   0.213E-13 0.107E-13 0.284E-13   -.331E-23 0.000E+00 0.000E+00   -.164E-12 -.954E-13 -.783E-12
   0.583E+02 0.346E+02 0.280E+03   -.589E+02 -.350E+02 -.282E+03   0.657E+00 0.390E+00 0.315E+01   0.214E-03 0.127E-03 0.103E-02
   -.583E+02 -.346E+02 -.280E+03   0.589E+02 0.350E+02 0.282E+03   -.657E+00 -.390E+00 -.315E+01   -.214E-03 -.127E-03 -.103E-02
 -----------------------------------------------------------------------------------------------
   0.148E-12 -.310E-11 0.197E-10   0.355E-13 0.711E-14 0.114E-12   0.222E-15 0.000E+00 -.444E-15   -.654E-12 -.381E-12 -.263E-11
 
 
 POSITION                                       TOTAL-FORCE (eV/Angst)
 -----------------------------------------------------------------------------------
      2.45696      1.45966     11.78173         0.027877      0.016562      0.133678
      3.70956      2.20382     17.78828        -0.027877     -0.016562     -0.133678
      0.00000      0.00000      0.00000        -0.000000      0.000000      0.000000
      1.33021      0.79027      6.37870         0.084326      0.050097      0.404363
      4.83631      2.87321     23.19132        -0.084326     -0.050097     -0.404363
 -----------------------------------------------------------------------------------
    total drift:                               -0.000000     -0.000000      0.000000


--------------------------------------------------------------------------------------------------------



  FREE ENERGIE OF THE ION-ELECTRON SYSTEM (eV)
  ---------------------------------------------------
  free  energy   TOTEN  =       -20.09890468 eV

  energy  without entropy=      -20.09830011  energy(sigma->0) =      -20.09875354
 


--------------------------------------------------------------------------------------------------------


    POTLOK:  cpu time    0.0582: real time    0.0581


--------------------------------------------------------------------------------------------------------


 writing wavefunctions
     LOOP+:  cpu time  101.0877: real time  104.4924
    4ORBIT:  cpu time    0.0000: real time    0.0000

 total amount of memory used by VASP on root node    48911. kBytes
========================================================================

   base      :      30000. kBytes
   nonlr-proj:       1551. kBytes
   fftplans  :       3114. kBytes
   grid      :       5102. kBytes
   one-center:         15. kBytes
   wavefun   :       9129. kBytes
 
  
  
 General timing and accounting informations for this job:
 ========================================================
  
                  Total CPU time used (sec):      104.316
                            User time (sec):      103.593
                          System time (sec):        0.722
                         Elapsed time (sec):      108.755
  
                   Maximum memory used (kb):       70812.
                   Average memory used (kb):           0.
  
                          Minor page faults:        35534
                          Major page faults:            0
                 Voluntary context switches:         3703
