 vasp.5.4.1 24Jun15 (build Jun 17 2016 15:57:28) complex                        
  
 executed on           IFC91_ompi date 2016.11.24  11:06:55
 running on   16 total cores
 distrk:  each k-point on   16 cores,    1 groups
 distr:  one band on NCORES_PER_BAND=  16 cores,    1 groups


--------------------------------------------------------------------------------------------------------


 INCAR:
 POTCAR:    PAW_PBE Bi_pv 29Jan08 GW ready        
 POTCAR:   PAW_PBE Se 06Sep2000                   

 ----------------------------------------------------------------------------- 
|                                                                             |
|           W    W    AA    RRRRR   N    N  II  N    N   GGGG   !!!           |
|           W    W   A  A   R    R  NN   N  II  NN   N  G    G  !!!           |
|           W    W  A    A  R    R  N N  N  II  N N  N  G       !!!           |
|           W WW W  AAAAAA  RRRRR   N  N N  II  N  N N  G  GGG   !            |
|           WW  WW  A    A  R   R   N   NN  II  N   NN  G    G                |
|           W    W  A    A  R    R  N    N  II  N    N   GGGG   !!!           |
|                                                                             |
|      For optimal performance we recommend to set                            |
|        NCORE= 4 - approx SQRT( number of cores)                             |
|      NCORE specifies how many cores store one orbital (NPAR=cpu/NCORE).     |
|      This setting can  greatly improve the performance of VASP for DFT.     |
|      The default, NPAR=number of cores might be grossly inefficient         |
|      on modern multi-core architectures or massively parallel machines.     |
|      Do your own testing !!!!                                               |
|      Unfortunately you need to use the default for GW and RPA calculations. |
|      (for HF NCORE is supported but not extensively tested yet)             |
|                                                                             |
 ----------------------------------------------------------------------------- 

 POTCAR:    PAW_PBE Bi_pv 29Jan08 GW ready        
   VRHFIN =Bi:                                                                  
   LEXCH  = PE                                                                  
   EATOM  =  4638.5322 eV,  340.9225 Ry                                         
                                                                                
   TITEL  = PAW_PBE Bi_pv 29Jan08 GW ready                                      
   LULTRA =        F    use ultrasoft PP ?                                      
   IUNSCR =        1    unscreen: 0-lin 1-nonlin 2-no                           
   RPACOR =    2.200    partial core radius                                     
   POMASS =  208.980; ZVAL   =   21.000    mass and valenz                      
   RCORE  =    2.500    outmost cutoff radius                                   
   RWIGS  =    3.090; RWIGS  =    1.635    wigner-seitz radius (au A)           
   ENMAX  =  309.187; ENMIN  =  231.890 eV                                      
   ICORE  =        3    local potential                                         
   LCOR   =        T    correct aug charges                                     
   LPAW   =        T    paw PP                                                  
   EAUG   =  442.899                                                            
   DEXC   =    0.000                                                            
   RMAX   =    2.622    core radius for proj-oper                               
   RAUG   =    1.300    factor for augmentation sphere                          
   RDEP   =    2.650    radius for radial grids                                 
   QCUT   =   -4.767; QGAM   =    9.534    optimization parameters              
                                                                                
   Description                                                                  
     l     E      TYP  RCUT    TYP  RCUT                                        
     1   -95.81     23  1.900                                                   
     1    -4.57     23  1.900                                                   
     2   -27.08     23  2.200                                                   
     2   -28.44     23  2.200                                                   
     0   -14.47     23  2.500                                                   
     0     6.80     23  2.500                                                   
     3    -1.36      7  2.200                                                   
  local pseudopotential read in
  partial core-charges read in
  atomic valenz-charges read in
  non local Contribution for L=           1  read in
    real space projection operators read in
  non local Contribution for L=           1  read in
    real space projection operators read in
  non local Contribution for L=           2  read in
    real space projection operators read in
  non local Contribution for L=           2  read in
    real space projection operators read in
  non local Contribution for L=           0  read in
    real space projection operators read in
  non local Contribution for L=           0  read in
    real space projection operators read in
    PAW grid and wavefunctions read in
 
   number of l-projection  operators is LMAX  =           6
   number of lm-projection operators is LMMAX =          18
 
 POTCAR:   PAW_PBE Se 06Sep2000                   
   VRHFIN =Se: s2p4                                                             
   LEXCH  = PE                                                                  
   EATOM  =   256.9644 eV,   18.8864 Ry                                         
                                                                                
   TITEL  = PAW_PBE Se 06Sep2000                                                
   LULTRA =        F    use ultrasoft PP ?                                      
   IUNSCR =        1    unscreen: 0-lin 1-nonlin 2-no                           
   RPACOR =    1.900    partial core radius                                     
   POMASS =   78.960; ZVAL   =    6.000    mass and valenz                      
   RCORE  =    2.100    outmost cutoff radius                                   
   RWIGS  =    2.200; RWIGS  =    1.164    wigner-seitz radius (au A)           
   ENMAX  =  211.534; ENMIN  =  158.651 eV                                      
   ICORE  =        3    local potential                                         
   LCOR   =        T    correct aug charges                                     
   LPAW   =        T    paw PP                                                  
   EAUG   =  446.842                                                            
   DEXC   =    -.031                                                            
   RMAX   =    3.170    core radius for proj-oper                               
   RAUG   =    1.300    factor for augmentation sphere                          
   RDEP   =    2.177    radius for radial grids                                 
   QCUT   =   -3.943; QGAM   =    7.886    optimization parameters              
                                                                                
   Description                                                                  
     l     E      TYP  RCUT    TYP  RCUT                                        
     0   .000     23  2.100                                                     
     0   .000     23  2.100                                                     
     1   .000     23  2.100                                                     
     1   .000     23  2.100                                                     
     2   .000     23  2.100                                                     
     3  -.100      7  2.100                                                     
  local pseudopotential read in
  partial core-charges read in
  atomic valenz-charges read in
  non local Contribution for L=           0  read in
    real space projection operators read in
  non local Contribution for L=           0  read in
    real space projection operators read in
  non local Contribution for L=           1  read in
    real space projection operators read in
  non local Contribution for L=           1  read in
    real space projection operators read in
  non local Contribution for L=           2  read in
    real space projection operators read in
    PAW grid and wavefunctions read in
 
   number of l-projection  operators is LMAX  =           5
   number of lm-projection operators is LMMAX =          13
 

 ----------------------------------------------------------------------------- 
|                                                                             |
|  ADVICE TO THIS USER RUNNING 'VASP/VAMP'   (HEAR YOUR MASTER'S VOICE ...):  |
|                                                                             |
|      You have a (more or less) 'small supercell' and for smaller cells      |
|      it is recommended  to use the reciprocal-space projection scheme!      |
|      The real space optimization is not  efficient for small cells and it   |
|      is also less accurate ...                                              |
|      Therefore set LREAL=.FALSE. in the  INCAR file                         |
|                                                                             |
 ----------------------------------------------------------------------------- 

 Optimization of the real space projectors (new method)

 maximal supplied QI-value         = 15.12
 optimisation between [QCUT,QGAM] = [ 10.73, 21.47] = [ 32.26,129.05] Ry 
 Optimized for a Real-space Cutoff    1.44 Angstroem

   l    n(q)    QCUT    max X(q) W(low)/X(q) W(high)/X(q)  e(spline) 
   1      9    10.734     2.850    0.13E-03    0.22E-03    0.28E-06
   1      9    10.734     6.992    0.16E-03    0.36E-03    0.33E-06
   2      8    10.734    50.816    0.52E-04    0.12E-03    0.13E-06
   2      8    10.734    51.435    0.54E-04    0.12E-03    0.13E-06
   0      9    10.734    20.448    0.23E-03    0.26E-04    0.20E-06
   0      9    10.734     8.797    0.34E-03    0.39E-04    0.29E-06
 Optimization of the real space projectors (new method)

 maximal supplied QI-value         = 17.95
 optimisation between [QCUT,QGAM] = [ 10.59, 21.36] = [ 31.42,127.80] Ry 
 Optimized for a Real-space Cutoff    1.28 Angstroem

   l    n(q)    QCUT    max X(q) W(low)/X(q) W(high)/X(q)  e(spline) 
   0      8    10.592     6.499    0.15E-04    0.12E-04    0.11E-07
   0      8    10.592    52.623    0.14E-03    0.24E-03    0.47E-07
   1      8    10.592     4.229    0.15E-04    0.48E-04    0.38E-07
   1      8    10.592    29.991    0.48E-03    0.71E-04    0.83E-07
   2      7    10.592     3.719    0.14E-03    0.26E-03    0.49E-07
  PAW_PBE Bi_pv 29Jan08 GW ready        :
 energy of atom  1       EATOM=-4638.5322
 kinetic energy error for atom=    0.0832 (will be added to EATOM!!)
 PAW_PBE Se 06Sep2000                   :
 energy of atom  2       EATOM= -256.9644
 kinetic energy error for atom=    0.0012 (will be added to EATOM!!)
 
 
 POSCAR: i2a=[Bi,Se] ; Bi2Se3.su.static.6        
  positions in direct lattice
  No initial velocities read in
 exchange correlation table for  LEXCH =        8
   RHO(1)=    0.500       N(1)  =     2000
   RHO(2)=  100.500       N(2)  =     4000
 


--------------------------------------------------------------------------------------------------------


 ion  position               nearest neighbor table
   1  0.398  0.398  0.398-   5 2.98   5 2.98   5 2.98   3 3.21   3 3.21   3 3.21
   2  0.602  0.602  0.602-   4 2.98   4 2.98   4 2.98   3 3.21   3 3.21   3 3.21
   3  0.000  0.000  0.000-   2 3.21   1 3.21   1 3.21   2 3.21   2 3.21   1 3.21
   4  0.216  0.216  0.216-   2 2.98   2 2.98   2 2.98
   5  0.784  0.784  0.784-   1 2.98   1 2.98   1 2.98
 
  LATTYP: Found a trigonal (rhomboedric) cell.
 ALAT       =    10.6077090000
 COS(alpha) =     0.9166474496
  
  Lattice vectors:
  
 A1 = (   4.2398670000,   0.0000000000,   9.7235290000)
 A2 = (   2.0277400000,   3.7235380000,   9.7235290000)
 A3 = (   0.0000000000,   0.0000000000,  10.6077090000)


Analysis of symmetry for initial positions (statically):
=====================================================================
 Subroutine PRICEL returns:
 Original cell was already a primitive cell.
 

 Routine SETGRP: Setting up the symmetry group for a 
 trigonal (rhombohedral) supercell.


 Subroutine GETGRP returns: Found 12 space group operations
 (whereof 12 operations were pure point group operations)
 out of a pool of 12 trial point group operations.


The static configuration has the point symmetry D_3d.


Analysis of symmetry for dynamics (positions and initial velocities):
=====================================================================
 Subroutine PRICEL returns:
 Original cell was already a primitive cell.
 

 Routine SETGRP: Setting up the symmetry group for a 
 trigonal (rhombohedral) supercell.


 Subroutine GETGRP returns: Found 12 space group operations
 (whereof 12 operations were pure point group operations)
 out of a pool of 12 trial point group operations.


The dynamic configuration has the point symmetry D_3d.
 
 
 KPOINTS: Automatic Mesh                          

Automatic generation of k-mesh.
Space group operators:
 irot       det(A)        alpha          n_x          n_y          n_z        tau_x        tau_y        tau_z
    1     1.000000     0.000000     1.000000     0.000000     0.000000     0.000000     0.000000     0.000000
    2    -1.000000     0.000000     1.000000     0.000000     0.000000     0.000000     0.000000     0.000000
    3     1.000000   180.000000     0.468184     0.859725    -0.204148     0.000000     0.000000     0.000000
    4    -1.000000   180.000000     0.468184     0.859725    -0.204148     0.000000     0.000000     0.000000
    5     1.000000   120.000000    -0.202663    -0.120400    -0.971819     0.000000     0.000000     0.000000
    6    -1.000000   120.000000    -0.202663    -0.120400    -0.971819     0.000000     0.000000     0.000000
    7     1.000000   180.000000     0.510756    -0.859725     0.000000     0.000000     0.000000     0.000000
    8    -1.000000   180.000000     0.510756    -0.859725     0.000000     0.000000     0.000000     0.000000
    9     1.000000   120.000000     0.202663     0.120400     0.971819     0.000000     0.000000     0.000000
   10    -1.000000   120.000000     0.202663     0.120400     0.971819     0.000000     0.000000     0.000000
   11     1.000000   180.000000     0.978940     0.000000    -0.204148     0.000000     0.000000     0.000000
   12    -1.000000   180.000000     0.978940     0.000000    -0.204148     0.000000     0.000000     0.000000
 
 Subroutine IBZKPT returns following result:
 ===========================================
 
 Found     65 irreducible k-points:
 
 Following reciprocal coordinates:
            Coordinates               Weight
  0.000000  0.000000  0.000000      1.000000
  0.125000  0.000000  0.000000      6.000000
  0.250000  0.000000  0.000000      6.000000
  0.375000  0.000000  0.000000      6.000000
  0.500000  0.000000  0.000000      3.000000
  0.125000  0.125000  0.000000      6.000000
  0.250000  0.125000  0.000000     12.000000
  0.375000  0.125000  0.000000     12.000000
  0.500000  0.125000  0.000000     12.000000
 -0.375000  0.125000  0.000000     12.000000
 -0.250000  0.125000  0.000000     12.000000
 -0.125000  0.125000  0.000000      6.000000
  0.250000  0.250000  0.000000      6.000000
  0.375000  0.250000  0.000000     12.000000
  0.500000  0.250000  0.000000     12.000000
 -0.375000  0.250000  0.000000     12.000000
 -0.250000  0.250000  0.000000      6.000000
  0.375000  0.375000  0.000000      6.000000
  0.500000  0.375000  0.000000     12.000000
 -0.375000  0.375000  0.000000      6.000000
  0.500000  0.500000  0.000000      3.000000
  0.125000  0.125000  0.125000      2.000000
  0.250000  0.125000  0.125000      6.000000
  0.375000  0.125000  0.125000      6.000000
  0.500000  0.125000  0.125000      6.000000
 -0.375000  0.125000  0.125000      6.000000
 -0.250000  0.125000  0.125000      6.000000
 -0.125000  0.125000  0.125000      6.000000
  0.250000  0.250000  0.125000      6.000000
  0.375000  0.250000  0.125000     12.000000
  0.500000  0.250000  0.125000     12.000000
 -0.375000  0.250000  0.125000     12.000000
 -0.250000  0.250000  0.125000     12.000000
 -0.125000  0.250000  0.125000     12.000000
  0.375000  0.375000  0.125000      6.000000
  0.500000  0.375000  0.125000     12.000000
 -0.375000  0.375000  0.125000     12.000000
 -0.250000  0.375000  0.125000     12.000000
 -0.125000  0.375000  0.125000     12.000000
  0.500000  0.500000  0.125000      6.000000
 -0.375000  0.500000  0.125000     12.000000
 -0.250000  0.500000  0.125000     12.000000
 -0.125000  0.500000  0.125000      6.000000
 -0.375000 -0.375000  0.125000      6.000000
 -0.250000 -0.375000  0.125000     12.000000
 -0.250000 -0.250000  0.125000      6.000000
  0.250000  0.250000  0.250000      2.000000
  0.375000  0.250000  0.250000      6.000000
  0.500000  0.250000  0.250000      6.000000
 -0.375000  0.250000  0.250000      6.000000
 -0.250000  0.250000  0.250000      6.000000
  0.375000  0.375000  0.250000      6.000000
  0.500000  0.375000  0.250000     12.000000
 -0.375000  0.375000  0.250000     12.000000
 -0.250000  0.375000  0.250000     12.000000
  0.500000  0.500000  0.250000      6.000000
 -0.375000  0.500000  0.250000     12.000000
 -0.250000  0.500000  0.250000      6.000000
 -0.375000 -0.375000  0.250000      6.000000
  0.375000  0.375000  0.375000      2.000000
  0.500000  0.375000  0.375000      6.000000
 -0.375000  0.375000  0.375000      6.000000
  0.500000  0.500000  0.375000      6.000000
 -0.375000  0.500000  0.375000      6.000000
  0.500000  0.500000  0.500000      1.000000
 
 Following cartesian coordinates:
            Coordinates               Weight
  0.000000  0.000000  0.000000      1.000000
  0.029482 -0.016055  0.000000      6.000000
  0.058964 -0.032110  0.000000      6.000000
  0.088446 -0.048165  0.000000      6.000000
  0.117928 -0.064221  0.000000      3.000000
  0.029482  0.017515  0.000000      6.000000
  0.058964  0.001460  0.000000     12.000000
  0.088446 -0.014595  0.000000     12.000000
  0.117928 -0.030650  0.000000     12.000000
 -0.088446  0.081736  0.000000     12.000000
 -0.058964  0.065681  0.000000     12.000000
 -0.029482  0.049625  0.000000      6.000000
  0.058964  0.035030  0.000000      6.000000
  0.088446  0.018975  0.000000     12.000000
  0.117928  0.002920  0.000000     12.000000
 -0.088446  0.115306  0.000000     12.000000
 -0.058964  0.099251  0.000000      6.000000
  0.088446  0.052545  0.000000      6.000000
  0.117928  0.036490  0.000000     12.000000
 -0.088446  0.148876  0.000000      6.000000
  0.117928  0.070060  0.000000      3.000000
  0.002457  0.001460  0.011784      2.000000
  0.031939 -0.014595  0.011784      6.000000
  0.061422 -0.030650  0.011784      6.000000
  0.090904 -0.046706  0.011784      6.000000
 -0.115471  0.065681  0.011784      6.000000
 -0.085989  0.049625  0.011784      6.000000
 -0.056507  0.033570  0.011784      6.000000
  0.031939  0.018975  0.011784      6.000000
  0.061422  0.002920  0.011784     12.000000
  0.090904 -0.013135  0.011784     12.000000
 -0.115471  0.099251  0.011784     12.000000
 -0.085989  0.083196  0.011784     12.000000
 -0.056507  0.067140  0.011784     12.000000
  0.061422  0.036490  0.011784      6.000000
  0.090904  0.020435  0.011784     12.000000
 -0.115471  0.132821  0.011784     12.000000
 -0.085989  0.116766  0.011784     12.000000
 -0.056507  0.100711  0.011784     12.000000
  0.090904  0.054005  0.011784      6.000000
 -0.115471  0.166391  0.011784     12.000000
 -0.085989  0.150336  0.011784     12.000000
 -0.056507  0.134281  0.011784      6.000000
 -0.115471 -0.068600  0.011784      6.000000
 -0.085989 -0.084656  0.011784     12.000000
 -0.085989 -0.051085  0.011784      6.000000
  0.004915  0.002920  0.023568      2.000000
  0.034397 -0.013135  0.023568      6.000000
  0.063879 -0.029190  0.023568      6.000000
 -0.142495  0.083196  0.023568      6.000000
 -0.113013  0.067140  0.023568      6.000000
  0.034397  0.020435  0.023568      6.000000
  0.063879  0.004380  0.023568     12.000000
 -0.142495  0.116766  0.023568     12.000000
 -0.113013  0.100711  0.023568     12.000000
  0.063879  0.037950  0.023568      6.000000
 -0.142495  0.150336  0.023568     12.000000
 -0.113013  0.134281  0.023568      6.000000
 -0.142495 -0.084656  0.023568      6.000000
  0.007372  0.004380  0.035352      2.000000
  0.036854 -0.011675  0.035352      6.000000
 -0.169520  0.100711  0.035352      6.000000
  0.036854  0.021895  0.035352      6.000000
 -0.169520  0.134281  0.035352      6.000000
  0.009830  0.005840  0.047136      1.000000
 


--------------------------------------------------------------------------------------------------------




 Dimension of arrays:
   k-points           NKPTS =     65   k-points in BZ     NKDIM =     65   number of bands    NBANDS=     38
   number of dos      NEDOS =    301   number of ions     NIONS =      5
   non local maximal  LDIM  =      6   non local SUM 2l+1 LMDIM =     18
   total plane-waves  NPLWV = 157464
   max r-space proj   IRMAX =  11730   max aug-charges    IRDMAX=  41749
   dimension x,y,z NGX =    54 NGY =   54 NGZ =   54
   dimension x,y,z NGXF=   108 NGYF=  108 NGZF=  108
   support grid    NGXF=   108 NGYF=  108 NGZF=  108
   ions per type =               2   3
 NGX,Y,Z   is equivalent  to a cutoff of   8.46,  8.46,  8.46 a.u.
 NGXF,Y,Z  is equivalent  to a cutoff of  16.93, 16.93, 16.93 a.u.


 I would recommend the setting:
   dimension x,y,z NGX =    54 NGY =   54 NGZ =   54
 SYSTEM =  obtained from ('Bi2Se3', 'static', 1) b 
 POSCAR =  i2a=[Bi,Se] ; Bi2Se3.su.static.6        

 Startparameter for this run:
   NWRITE =      2    write-flag & timer
   PREC   = normal    normal or accurate (medium, high low for compatibility)
   ISTART =      0    job   : 0-new  1-cont  2-samecut
   ICHARG =      2    charge: 1-file 2-atom 10-const
   ISPIN  =      1    spin polarized calculation?
   LNONCOLLINEAR =      F non collinear calculations
   LSORBIT =      F    spin-orbit coupling
   INIWAV =      1    electr: 0-lowe 1-rand  2-diag
   LASPH  =      F    aspherical Exc in radial PAW
   METAGGA=      F    non-selfconsistent MetaGGA calc.

 Electronic Relaxation 1
   ENCUT  =  441.0 eV  32.41 Ry    5.69 a.u.  18.16 18.16 18.16*2*pi/ulx,y,z
   ENINI  =  441.0     initial cutoff
   ENAUG  =  776.2 eV  augmentation charge cutoff
   NELM   =     50;   NELMIN=  4; NELMDL= -5     # of ELM steps 
   EDIFF  = 0.6E-05   stopping-criterion for ELM
   LREAL  =      T    real-space projection
   NLSPLINE    = F    spline interpolate recip. space projectors
   LCOMPAT=      F    compatible to vasp.4.4
   GGA_COMPAT  = T    GGA compatible to vasp.4.4-vasp.4.6
   LMAXPAW     = -100 max onsite density
   LMAXMIX     =    2 max onsite mixed and CHGCAR
   VOSKOWN=      0    Vosko Wilk Nusair interpolation
   ROPT   =   -0.00050  -0.00050
 Ionic relaxation
   EDIFFG = 0.0E+00   stopping-criterion for IOM
   NSW    =      0    number of steps for IOM
   NBLOCK =      1;   KBLOCK =      1    inner block; outer block 
   IBRION =     -1    ionic relax: 0-MD 1-quasi-New 2-CG
   NFREE  =      0    steps in history (QN), initial steepest desc. (CG)
   ISIF   =      2    stress and relaxation
   IWAVPR =     10    prediction:  0-non 1-charg 2-wave 3-comb
   ISYM   =      2    0-nonsym 1-usesym 2-fastsym
   LCORR  =      T    Harris-Foulkes like correction to forces

   POTIM  = 0.5000    time-step for ionic-motion
   TEIN   =    0.0    initial temperature
   TEBEG  =    0.0;   TEEND  =   0.0 temperature during run
   SMASS  =  -3.00    Nose mass-parameter (am)
   estimated Nose-frequenzy (Omega)   =  0.10E-29 period in steps =****** mass=  -0.257E-26a.u.
   SCALEE = 1.0000    scale energy and forces
   NPACO  =    256;   APACO  = 16.0  distance and # of slots for P.C.
   PSTRESS=    0.0 pullay stress

  Mass of Ions in am
   POMASS = 208.98 78.96
  Ionic Valenz
   ZVAL   =  21.00  6.00
  Atomic Wigner-Seitz radii
   RWIGS  =  -1.00 -1.00
  virtual crystal weights 
   VCA    =   1.00  1.00
   NELECT =      60.0000    total number of electrons
   NUPDOWN=      -1.0000    fix difference up-down

 DOS related values:
   EMIN   =  10.00;   EMAX   =-10.00  energy-range for DOS
   EFERMI =   0.00
   ISMEAR =     2;   SIGMA  =   0.20  broadening in eV -4-tet -1-fermi 0-gaus

 Electronic relaxation 2 (details)
   IALGO  =     38    algorithm
   LDIAG  =      T    sub-space diagonalisation (order eigenvalues)
   LSUBROT=      F    optimize rotation matrix (better conditioning)
   TURBO    =      0    0=normal 1=particle mesh
   IRESTART =      0    0=no restart 2=restart with 2 vectors
   NREBOOT  =      0    no. of reboots
   NMIN     =      0    reboot dimension
   EREF     =   0.00    reference energy to select bands
   IMIX   =      4    mixing-type and parameters
     AMIX     =   0.40;   BMIX     =  1.00
     AMIX_MAG =   1.60;   BMIX_MAG =  1.00
     AMIN     =   0.10
     WC   =   100.;   INIMIX=   1;  MIXPRE=   1;  MAXMIX=  40

 Intra band minimization:
   WEIMIN = 0.0000     energy-eigenvalue tresh-hold
   EBREAK =  0.00E+00  absolut break condition
   DEPER  =   0.30     relativ break condition  

   TIME   =   0.40     timestep for ELM

  volume/ion in A,a.u.               =      33.49       226.02
  Fermi-wavevector in a.u.,A,eV,Ry     =   1.162738  2.197257 18.394543  1.351961
  Thomas-Fermi vector in A             =   2.299296
 
 Write flags
   LWAVE  =      T    write WAVECAR
   LCHARG =      T    write CHGCAR
   LVTOT  =      F    write LOCPOT, total local potential
   LVHAR  =      F    write LOCPOT, Hartree potential only
   LELF   =      F    write electronic localiz. function (ELF)
   LORBIT =      0    0 simple, 1 ext, 2 COOP (PROOUT)


 Dipole corrections
   LMONO  =      F    monopole corrections only (constant potential shift)
   LDIPOL =      F    correct potential (dipole corrections)
   IDIPOL =      0    1-x, 2-y, 3-z, 4-all directions 
   EPSILON=  1.0000000 bulk dielectric constant

 Exchange correlation treatment:
   GGA     =    --    GGA type
   LEXCH   =     8    internal setting for exchange type
   VOSKOWN=      0    Vosko Wilk Nusair interpolation
   LHFCALC =     F    Hartree Fock is set to
   LHFONE  =     F    Hartree Fock one center treatment
   AEXX    =    0.0000 exact exchange contribution

 Linear response parameters
   LEPSILON=     F    determine dielectric tensor
   LRPA    =     F    only Hartree local field effects (RPA)
   LNABLA  =     F    use nabla operator in PAW spheres
   LVEL    =     F    velocity operator in full k-point grid
   LINTERFAST=   F  fast interpolation
   KINTER  =     0    interpolate to denser k-point grid
   CSHIFT  =0.1000    complex shift for real part using Kramers Kronig
   OMEGAMAX=  -1.0    maximum frequency
   DEG_THRESHOLD= 0.2000000E-02 threshold for treating states as degnerate
   RTIME   =    0.100 relaxation time in fs

 Orbital magnetization related:
   ORBITALMAG=     F  switch on orbital magnetization
   LCHIMAG   =     F  perturbation theory with respect to B field
   DQ        =  0.001000  dq finite difference perturbation B field



--------------------------------------------------------------------------------------------------------


 Static calculation
 charge density and potential will be updated during run
 non-spin polarized calculation
 Variant of blocked Davidson
 Davidson routine will perform the subspace rotation
 perform sub-space diagonalisation
    after iterative eigenvector-optimisation
 modified Broyden-mixing scheme, WC =      100.0
 initial mixing is a Kerker type mixing with AMIX =  0.4000 and BMIX =      1.0000
 Hartree-type preconditioning will be used
 using additional bands            8
 real space projection scheme for non local part
 use partial core corrections
 calculate Harris-corrections to forces 
   (improved forces if not selfconsistent)
 use gradient corrections 
 use of overlap-Matrix (Vanderbilt PP)
 Methfessel and Paxton  Order N= 2 SIGMA  =   0.20


--------------------------------------------------------------------------------------------------------


  energy-cutoff  :      441.00
  volume of cell :      167.47
      direct lattice vectors                 reciprocal lattice vectors
     4.239867000  0.000000000  9.723529000     0.235856455 -0.128441167  0.000000000
     2.027740000  3.723538000  9.723529000     0.000000000  0.268561782  0.000000000
     0.000000000  0.000000000 10.607709000    -0.216197209 -0.128441198  0.094271063

  length of vectors
    10.607708913 10.607708563 10.607709000     0.268561726  0.268561782  0.268561739


 
 k-points in units of 2pi/SCALE and weight: Automatic Mesh                          
   0.00000000  0.00000000  0.00000000       0.002
   0.02948206 -0.01605515  0.00000000       0.012
   0.05896411 -0.03211029  0.00000000       0.012
   0.08844617 -0.04816544  0.00000000       0.012
   0.11792823 -0.06422058  0.00000000       0.006
   0.02948206  0.01751508  0.00000000       0.012
   0.05896411  0.00145993  0.00000000       0.023
   0.08844617 -0.01459522  0.00000000       0.023
   0.11792823 -0.03065036  0.00000000       0.023
  -0.08844617  0.08173566  0.00000000       0.023
  -0.05896411  0.06568051  0.00000000       0.023
  -0.02948206  0.04962537  0.00000000       0.012
   0.05896411  0.03503015  0.00000000       0.012
   0.08844617  0.01897501  0.00000000       0.023
   0.11792823  0.00291986  0.00000000       0.023
  -0.08844617  0.11530588  0.00000000       0.023
  -0.05896411  0.09925074  0.00000000       0.012
   0.08844617  0.05254523  0.00000000       0.012
   0.11792823  0.03649008  0.00000000       0.023
  -0.08844617  0.14887611  0.00000000       0.012
   0.11792823  0.07006031  0.00000000       0.006
   0.00245741  0.00145993  0.01178388       0.004
   0.03193946 -0.01459522  0.01178388       0.012
   0.06142152 -0.03065036  0.01178388       0.012
   0.09090358 -0.04670551  0.01178388       0.012
  -0.11547082  0.06568051  0.01178388       0.012
  -0.08598876  0.04962536  0.01178388       0.012
  -0.05650671  0.03357022  0.01178388       0.012
   0.03193946  0.01897500  0.01178388       0.012
   0.06142152  0.00291986  0.01178388       0.023
   0.09090358 -0.01313529  0.01178388       0.023
  -0.11547082  0.09925073  0.01178388       0.023
  -0.08598876  0.08319559  0.01178388       0.023
  -0.05650671  0.06714044  0.01178388       0.023
   0.06142152  0.03649008  0.01178388       0.012
   0.09090358  0.02043493  0.01178388       0.023
  -0.11547082  0.13282096  0.01178388       0.023
  -0.08598876  0.11676581  0.01178388       0.023
  -0.05650671  0.10071066  0.01178388       0.023
   0.09090358  0.05400516  0.01178388       0.012
  -0.11547082  0.16639118  0.01178388       0.023
  -0.08598876  0.15033603  0.01178388       0.023
  -0.05650671  0.13428089  0.01178388       0.012
  -0.11547082 -0.06860038  0.01178388       0.012
  -0.08598876 -0.08465553  0.01178388       0.023
  -0.08598876 -0.05108530  0.01178388       0.012
   0.00491481  0.00291985  0.02356777       0.004
   0.03439687 -0.01313529  0.02356777       0.012
   0.06387893 -0.02919044  0.02356777       0.012
  -0.14249547  0.08319558  0.02356777       0.012
  -0.11301342  0.06714044  0.02356777       0.012
   0.03439687  0.02043493  0.02356777       0.012
   0.06387893  0.00437978  0.02356777       0.023
  -0.14249547  0.11676581  0.02356777       0.023
  -0.11301342  0.10071066  0.02356777       0.023
   0.06387893  0.03795001  0.02356777       0.012
  -0.14249547  0.15033603  0.02356777       0.023
  -0.11301342  0.13428088  0.02356777       0.012
  -0.14249547 -0.08465553  0.02356777       0.012
   0.00737222  0.00437978  0.03535165       0.004
   0.03685427 -0.01167536  0.03535165       0.012
  -0.16952012  0.10071066  0.03535165       0.012
   0.03685427  0.02189486  0.03535165       0.012
  -0.16952012  0.13428088  0.03535165       0.012
   0.00982962  0.00583971  0.04713553       0.002
 
 k-points in reciprocal lattice and weights: Automatic Mesh                          
   0.00000000  0.00000000  0.00000000       0.002
   0.12500000  0.00000000  0.00000000       0.012
   0.25000000  0.00000000  0.00000000       0.012
   0.37500000  0.00000000  0.00000000       0.012
   0.50000000  0.00000000  0.00000000       0.006
   0.12500000  0.12500000  0.00000000       0.012
   0.25000000  0.12500000  0.00000000       0.023
   0.37500000  0.12500000  0.00000000       0.023
   0.50000000  0.12500000  0.00000000       0.023
  -0.37500000  0.12500000  0.00000000       0.023
  -0.25000000  0.12500000  0.00000000       0.023
  -0.12500000  0.12500000  0.00000000       0.012
   0.25000000  0.25000000  0.00000000       0.012
   0.37500000  0.25000000  0.00000000       0.023
   0.50000000  0.25000000  0.00000000       0.023
  -0.37500000  0.25000000  0.00000000       0.023
  -0.25000000  0.25000000  0.00000000       0.012
   0.37500000  0.37500000  0.00000000       0.012
   0.50000000  0.37500000  0.00000000       0.023
  -0.37500000  0.37500000  0.00000000       0.012
   0.50000000  0.50000000  0.00000000       0.006
   0.12500000  0.12500000  0.12500000       0.004
   0.25000000  0.12500000  0.12500000       0.012
   0.37500000  0.12500000  0.12500000       0.012
   0.50000000  0.12500000  0.12500000       0.012
  -0.37500000  0.12500000  0.12500000       0.012
  -0.25000000  0.12500000  0.12500000       0.012
  -0.12500000  0.12500000  0.12500000       0.012
   0.25000000  0.25000000  0.12500000       0.012
   0.37500000  0.25000000  0.12500000       0.023
   0.50000000  0.25000000  0.12500000       0.023
  -0.37500000  0.25000000  0.12500000       0.023
  -0.25000000  0.25000000  0.12500000       0.023
  -0.12500000  0.25000000  0.12500000       0.023
   0.37500000  0.37500000  0.12500000       0.012
   0.50000000  0.37500000  0.12500000       0.023
  -0.37500000  0.37500000  0.12500000       0.023
  -0.25000000  0.37500000  0.12500000       0.023
  -0.12500000  0.37500000  0.12500000       0.023
   0.50000000  0.50000000  0.12500000       0.012
  -0.37500000  0.50000000  0.12500000       0.023
  -0.25000000  0.50000000  0.12500000       0.023
  -0.12500000  0.50000000  0.12500000       0.012
  -0.37500000 -0.37500000  0.12500000       0.012
  -0.25000000 -0.37500000  0.12500000       0.023
  -0.25000000 -0.25000000  0.12500000       0.012
   0.25000000  0.25000000  0.25000000       0.004
   0.37500000  0.25000000  0.25000000       0.012
   0.50000000  0.25000000  0.25000000       0.012
  -0.37500000  0.25000000  0.25000000       0.012
  -0.25000000  0.25000000  0.25000000       0.012
   0.37500000  0.37500000  0.25000000       0.012
   0.50000000  0.37500000  0.25000000       0.023
  -0.37500000  0.37500000  0.25000000       0.023
  -0.25000000  0.37500000  0.25000000       0.023
   0.50000000  0.50000000  0.25000000       0.012
  -0.37500000  0.50000000  0.25000000       0.023
  -0.25000000  0.50000000  0.25000000       0.012
  -0.37500000 -0.37500000  0.25000000       0.012
   0.37500000  0.37500000  0.37500000       0.004
   0.50000000  0.37500000  0.37500000       0.012
  -0.37500000  0.37500000  0.37500000       0.012
   0.50000000  0.50000000  0.37500000       0.012
  -0.37500000  0.50000000  0.37500000       0.012
   0.50000000  0.50000000  0.50000000       0.002
 
 position of ions in fractional coordinates (direct lattice) 
   0.39843500  0.39843500  0.39843500
   0.60156500  0.60156500  0.60156500
   0.00000000  0.00000000  0.00000000
   0.21571500  0.21571500  0.21571500
   0.78428500  0.78428500  0.78428500
 
 position of ions in cartesian coordinates  (Angst):
   2.49723400  1.48358786 11.97487109
   3.77037300  2.23995014 18.07989591
   0.00000000  0.00000000  0.00000000
   1.35201684  0.80322300  6.48326406
   4.91559016  2.92031500 23.57150294
 


--------------------------------------------------------------------------------------------------------


 k-point  1 :   0.0000 0.0000 0.0000  plane waves:    3551
 k-point  2 :   0.1250 0.0000 0.0000  plane waves:    3535
 k-point  3 :   0.2500 0.0000 0.0000  plane waves:    3526
 k-point  4 :   0.3750 0.0000 0.0000  plane waves:    3519
 k-point  5 :   0.5000 0.0000 0.0000  plane waves:    3502
 k-point  6 :   0.1250 0.1250 0.0000  plane waves:    3523
 k-point  7 :   0.2500 0.1250 0.0000  plane waves:    3534
 k-point  8 :   0.3750 0.1250 0.0000  plane waves:    3525
 k-point  9 :   0.5000 0.1250 0.0000  plane waves:    3505
 k-point 10 :  -0.3750 0.1250 0.0000  plane waves:    3518
 k-point 11 :  -0.2500 0.1250 0.0000  plane waves:    3521
 k-point 12 :  -0.1250 0.1250 0.0000  plane waves:    3539
 k-point 13 :   0.2500 0.2500 0.0000  plane waves:    3528
 k-point 14 :   0.3750 0.2500 0.0000  plane waves:    3531
 k-point 15 :   0.5000 0.2500 0.0000  plane waves:    3508
 k-point 16 :  -0.3750 0.2500 0.0000  plane waves:    3501
 k-point 17 :  -0.2500 0.2500 0.0000  plane waves:    3543
 k-point 18 :   0.3750 0.3750 0.0000  plane waves:    3512
 k-point 19 :   0.5000 0.3750 0.0000  plane waves:    3513
 k-point 20 :  -0.3750 0.3750 0.0000  plane waves:    3512
 k-point 21 :   0.5000 0.5000 0.0000  plane waves:    3518
 k-point 22 :   0.1250 0.1250 0.1250  plane waves:    3551
 k-point 23 :   0.2500 0.1250 0.1250  plane waves:    3531
 k-point 24 :   0.3750 0.1250 0.1250  plane waves:    3528
 k-point 25 :   0.5000 0.1250 0.1250  plane waves:    3506
 k-point 26 :  -0.3750 0.1250 0.1250  plane waves:    3507
 k-point 27 :  -0.2500 0.1250 0.1250  plane waves:    3519
 k-point 28 :  -0.1250 0.1250 0.1250  plane waves:    3528
 k-point 29 :   0.2500 0.2500 0.1250  plane waves:    3536
 k-point 30 :   0.3750 0.2500 0.1250  plane waves:    3537
 k-point 31 :   0.5000 0.2500 0.1250  plane waves:    3521
 k-point 32 :  -0.3750 0.2500 0.1250  plane waves:    3504
 k-point 33 :  -0.2500 0.2500 0.1250  plane waves:    3516
 k-point 34 :  -0.1250 0.2500 0.1250  plane waves:    3527
 k-point 35 :   0.3750 0.3750 0.1250  plane waves:    3532
 k-point 36 :   0.5000 0.3750 0.1250  plane waves:    3538
 k-point 37 :  -0.3750 0.3750 0.1250  plane waves:    3516
 k-point 38 :  -0.2500 0.3750 0.1250  plane waves:    3509
 k-point 39 :  -0.1250 0.3750 0.1250  plane waves:    3521
 k-point 40 :   0.5000 0.5000 0.1250  plane waves:    3520
 k-point 41 :  -0.3750 0.5000 0.1250  plane waves:    3518
 k-point 42 :  -0.2500 0.5000 0.1250  plane waves:    3504
 k-point 43 :  -0.1250 0.5000 0.1250  plane waves:    3504
 k-point 44 :  -0.3750-0.3750 0.1250  plane waves:    3524
 k-point 45 :  -0.2500-0.3750 0.1250  plane waves:    3517
 k-point 46 :  -0.2500-0.2500 0.1250  plane waves:    3517
 k-point 47 :   0.2500 0.2500 0.2500  plane waves:    3557
 k-point 48 :   0.3750 0.2500 0.2500  plane waves:    3546
 k-point 49 :   0.5000 0.2500 0.2500  plane waves:    3519
 k-point 50 :  -0.3750 0.2500 0.2500  plane waves:    3512
 k-point 51 :  -0.2500 0.2500 0.2500  plane waves:    3514
 k-point 52 :   0.3750 0.3750 0.2500  plane waves:    3543
 k-point 53 :   0.5000 0.3750 0.2500  plane waves:    3537
 k-point 54 :  -0.3750 0.3750 0.2500  plane waves:    3525
 k-point 55 :  -0.2500 0.3750 0.2500  plane waves:    3508
 k-point 56 :   0.5000 0.5000 0.2500  plane waves:    3530
 k-point 57 :  -0.3750 0.5000 0.2500  plane waves:    3527
 k-point 58 :  -0.2500 0.5000 0.2500  plane waves:    3512
 k-point 59 :  -0.3750-0.3750 0.2500  plane waves:    3508
 k-point 60 :   0.3750 0.3750 0.3750  plane waves:    3525
 k-point 61 :   0.5000 0.3750 0.3750  plane waves:    3539
 k-point 62 :  -0.3750 0.3750 0.3750  plane waves:    3530
 k-point 63 :   0.5000 0.5000 0.3750  plane waves:    3540
 k-point 64 :  -0.3750 0.5000 0.3750  plane waves:    3546
 k-point 65 :   0.5000 0.5000 0.5000  plane waves:    3510

 maximum and minimum number of plane-waves per node :       238      206

 maximum number of plane-waves:      3557
 maximum index in each direction: 
   IXMAX=   18   IYMAX=   18   IZMAX=   18
   IXMIN=  -18   IYMIN=  -18   IZMIN=  -18

 WARNING: aliasing errors must be expected set NGX to  74 to avoid them
 WARNING: aliasing errors must be expected set NGY to  74 to avoid them
 WARNING: aliasing errors must be expected set NGZ to  74 to avoid them
 aliasing errors are usually negligible using standard VASP settings
 and one can safely disregard these warnings

 real space projection operators:
  total allocation   :       5607.24 KBytes
  max/ min on nodes  :        397.75        320.40


 parallel 3D FFT for wavefunctions:
    minimum data exchange during FFTs selected (reduces bandwidth)
 parallel 3D FFT for charge:
    minimum data exchange during FFTs selected (reduces bandwidth)


 total amount of memory used by VASP on root node    49632. kBytes
========================================================================

   base      :      30000. kBytes
   nonlr-proj:       1482. kBytes
   fftplans  :       3114. kBytes
   grid      :       5102. kBytes
   one-center:         15. kBytes
   wavefun   :       9919. kBytes
 
     INWAV:  cpu time    0.0000: real time    0.0003
 Broyden mixing: mesh for mixing (old mesh)
   NGX = 37   NGY = 37   NGZ = 37
  (NGX  =108   NGY  =108   NGZ  =108)
  gives a total of  50653 points

 initial charge density was supplied:
 charge density of overlapping atoms calculated
 number of electron      60.0000000 magnetization 
 keeping initial charge density in first step


--------------------------------------------------------------------------------------------------------


 Maximum index for non-local projection operator          734
 Maximum index for augmentation-charges         2725 (set IRDMAX)


--------------------------------------------------------------------------------------------------------


 First call to EWALD:  gamma=   0.322
 Maximum number of real-space cells 4x 4x 4
 Maximum number of reciprocal cells 5x 5x 5

 FEWALD executed in parallel
    FEWALD:  cpu time    0.0017: real time    0.0017


----------------------------------------- Iteration    1(   1)  ---------------------------------------


    POTLOK:  cpu time    0.0534: real time    0.0534
    SETDIJ:  cpu time    0.0062: real time    0.0062
     EDDAV:  cpu time    7.0609: real time    7.0576
       DOS:  cpu time    0.0071: real time    0.0071
    --------------------------------------------
      LOOP:  cpu time    7.1298: real time    7.1880

 eigenvalue-minimisations  :  6532
 total energy-change (2. order) : 0.4581880E+03  (-0.3840262E+04)
 number of electron      60.0000000 magnetization 
 augmentation part       60.0000000 magnetization 

 Free energy of the ion-electron system (eV)
  ---------------------------------------------------
  alpha Z        PSCENC =       181.73148386
  Ewald energy   TEWEN  =     -5122.39332091
  -Hartree energ DENC   =     -3724.85394380
  -exchange      EXHF   =         0.00000000
  -V(xc)+E(xc)   XCENC  =       226.95447099
  PAW double counting   =      7404.97912102    -7555.84706289
  entropy T*S    EENTRO =        -0.00115837
  eigenvalues    EBANDS =     -1000.16921887
  atomic energy  EATOM  =     10047.78760332
  Solvation  Ediel_sol  =         0.00000000
  ---------------------------------------------------
  free energy    TOTEN  =       458.18797435 eV

  energy without entropy =      458.18913272  energy(sigma->0) =      458.18826394


--------------------------------------------------------------------------------------------------------




----------------------------------------- Iteration    1(   2)  ---------------------------------------


     EDDAV:  cpu time    7.0287: real time    7.0254
       DOS:  cpu time    0.0065: real time    0.0065
    --------------------------------------------
      LOOP:  cpu time    7.0358: real time    7.1101

 eigenvalue-minimisations  :  6518
 total energy-change (2. order) :-0.4500165E+03  (-0.4386854E+03)
 number of electron      60.0000000 magnetization 
 augmentation part       60.0000000 magnetization 

 Free energy of the ion-electron system (eV)
  ---------------------------------------------------
  alpha Z        PSCENC =       181.73148386
  Ewald energy   TEWEN  =     -5122.39332091
  -Hartree energ DENC   =     -3724.85394380
  -exchange      EXHF   =         0.00000000
  -V(xc)+E(xc)   XCENC  =       226.95447099
  PAW double counting   =      7404.97912102    -7555.84706289
  entropy T*S    EENTRO =         0.00012504
  eigenvalues    EBANDS =     -1450.18696974
  atomic energy  EATOM  =     10047.78760332
  Solvation  Ediel_sol  =         0.00000000
  ---------------------------------------------------
  free energy    TOTEN  =         8.17150689 eV

  energy without entropy =        8.17138185  energy(sigma->0) =        8.17147563


--------------------------------------------------------------------------------------------------------




----------------------------------------- Iteration    1(   3)  ---------------------------------------


     EDDAV:  cpu time    6.2243: real time    6.2219
       DOS:  cpu time    0.0064: real time    0.0064
    --------------------------------------------
      LOOP:  cpu time    6.2318: real time    6.3360

 eigenvalue-minimisations  :  5600
 total energy-change (2. order) :-0.2823784E+02  (-0.2775926E+02)
 number of electron      60.0000000 magnetization 
 augmentation part       60.0000000 magnetization 

 Free energy of the ion-electron system (eV)
  ---------------------------------------------------
  alpha Z        PSCENC =       181.73148386
  Ewald energy   TEWEN  =     -5122.39332091
  -Hartree energ DENC   =     -3724.85394380
  -exchange      EXHF   =         0.00000000
  -V(xc)+E(xc)   XCENC  =       226.95447099
  PAW double counting   =      7404.97912102    -7555.84706289
  entropy T*S    EENTRO =         0.00016325
  eigenvalues    EBANDS =     -1478.42484550
  atomic energy  EATOM  =     10047.78760332
  Solvation  Ediel_sol  =         0.00000000
  ---------------------------------------------------
  free energy    TOTEN  =       -20.06633067 eV

  energy without entropy =      -20.06649392  energy(sigma->0) =      -20.06637148


--------------------------------------------------------------------------------------------------------




----------------------------------------- Iteration    1(   4)  ---------------------------------------


     EDDAV:  cpu time    7.0250: real time    7.0220
       DOS:  cpu time    0.0063: real time    0.0063
    --------------------------------------------
      LOOP:  cpu time    7.0317: real time    7.1399

 eigenvalue-minimisations  :  6534
 total energy-change (2. order) :-0.8751213E+00  (-0.8745803E+00)
 number of electron      60.0000000 magnetization 
 augmentation part       60.0000000 magnetization 

 Free energy of the ion-electron system (eV)
  ---------------------------------------------------
  alpha Z        PSCENC =       181.73148386
  Ewald energy   TEWEN  =     -5122.39332091
  -Hartree energ DENC   =     -3724.85394380
  -exchange      EXHF   =         0.00000000
  -V(xc)+E(xc)   XCENC  =       226.95447099
  PAW double counting   =      7404.97912102    -7555.84706289
  entropy T*S    EENTRO =         0.00017065
  eigenvalues    EBANDS =     -1479.29997423
  atomic energy  EATOM  =     10047.78760332
  Solvation  Ediel_sol  =         0.00000000
  ---------------------------------------------------
  free energy    TOTEN  =       -20.94145199 eV

  energy without entropy =      -20.94162265  energy(sigma->0) =      -20.94149466


--------------------------------------------------------------------------------------------------------




----------------------------------------- Iteration    1(   5)  ---------------------------------------


     EDDAV:  cpu time    7.7372: real time    7.7336
       DOS:  cpu time    0.0060: real time    0.0060
    CHARGE:  cpu time    0.5173: real time    0.5171
    MIXING:  cpu time    0.0020: real time    0.0020
    --------------------------------------------
      LOOP:  cpu time    8.2632: real time    8.3565

 eigenvalue-minimisations  :  7358
 total energy-change (2. order) :-0.5716239E-01  (-0.5696304E-01)
 number of electron      60.0000027 magnetization 
 augmentation part       11.7764956 magnetization 

 Broyden mixing:
  rms(total) = 0.88496E+00    rms(broyden)= 0.88494E+00
  rms(prec ) = 0.10833E+01
  weight for this iteration     100.00

 Free energy of the ion-electron system (eV)
  ---------------------------------------------------
  alpha Z        PSCENC =       181.73148386
  Ewald energy   TEWEN  =     -5122.39332091
  -Hartree energ DENC   =     -3724.85394380
  -exchange      EXHF   =         0.00000000
  -V(xc)+E(xc)   XCENC  =       226.95447099
  PAW double counting   =      7404.97912102    -7555.84706289
  entropy T*S    EENTRO =        -0.00073132
  eigenvalues    EBANDS =     -1479.35623464
  atomic energy  EATOM  =     10047.78760332
  Solvation  Ediel_sol  =         0.00000000
  ---------------------------------------------------
  free energy    TOTEN  =       -20.99861438 eV

  energy without entropy =      -20.99788306  energy(sigma->0) =      -20.99843155


--------------------------------------------------------------------------------------------------------




----------------------------------------- Iteration    1(   6)  ---------------------------------------


    POTLOK:  cpu time    0.0527: real time    0.0527
    SETDIJ:  cpu time    0.0050: real time    0.0050
     EDDAV:  cpu time    5.9762: real time    5.9732
       DOS:  cpu time    0.0057: real time    0.0057
    CHARGE:  cpu time    0.5152: real time    0.5149
    MIXING:  cpu time    0.0019: real time    0.0019
    --------------------------------------------
      LOOP:  cpu time    6.5573: real time    6.6515

 eigenvalue-minimisations  :  5288
 total energy-change (2. order) : 0.1081069E+01  (-0.3025374E+00)
 number of electron      60.0000028 magnetization 
 augmentation part       11.9623784 magnetization 

 Broyden mixing:
  rms(total) = 0.62604E+00    rms(broyden)= 0.62604E+00
  rms(prec ) = 0.64440E+00
  weight for this iteration     100.00

 eigenvalues of (default mixing * dielectric matrix)
  average eigenvalue GAMMA=   1.8338
  1.8338

 Free energy of the ion-electron system (eV)
  ---------------------------------------------------
  alpha Z        PSCENC =       181.73148386
  Ewald energy   TEWEN  =     -5122.39332091
  -Hartree energ DENC   =     -3696.81799171
  -exchange      EXHF   =         0.00000000
  -V(xc)+E(xc)   XCENC  =       227.04910313
  PAW double counting   =      7287.89905666    -7436.90648268
  entropy T*S    EENTRO =        -0.00064271
  eigenvalues    EBANDS =     -1508.26635468
  atomic energy  EATOM  =     10047.78760332
  Solvation  Ediel_sol  =         0.00000000
  ---------------------------------------------------
  free energy    TOTEN  =       -19.91754571 eV

  energy without entropy =      -19.91690301  energy(sigma->0) =      -19.91738503


--------------------------------------------------------------------------------------------------------




----------------------------------------- Iteration    1(   7)  ---------------------------------------


    POTLOK:  cpu time    0.0517: real time    0.0522
    SETDIJ:  cpu time    0.0050: real time    0.0050
     EDDAV:  cpu time    6.0244: real time    6.0218
       DOS:  cpu time    0.0062: real time    0.0062
    CHARGE:  cpu time    0.5236: real time    0.5244
    MIXING:  cpu time    0.0020: real time    0.0020
    --------------------------------------------
      LOOP:  cpu time    6.6152: real time    6.7263

 eigenvalue-minimisations  :  5324
 total energy-change (2. order) :-0.7470782E-02  (-0.3370863E-01)
 number of electron      60.0000028 magnetization 
 augmentation part       11.9572086 magnetization 

 Broyden mixing:
  rms(total) = 0.34622E+00    rms(broyden)= 0.34622E+00
  rms(prec ) = 0.35258E+00
  weight for this iteration     100.00

 eigenvalues of (default mixing * dielectric matrix)
  average eigenvalue GAMMA=   1.7970
  1.0045  2.5895

 Free energy of the ion-electron system (eV)
  ---------------------------------------------------
  alpha Z        PSCENC =       181.73148386
  Ewald energy   TEWEN  =     -5122.39332091
  -Hartree energ DENC   =     -3695.48293667
  -exchange      EXHF   =         0.00000000
  -V(xc)+E(xc)   XCENC  =       227.11631546
  PAW double counting   =      7297.58638853    -7447.47830318
  entropy T*S    EENTRO =        -0.00100959
  eigenvalues    EBANDS =     -1508.79123732
  atomic energy  EATOM  =     10047.78760332
  Solvation  Ediel_sol  =         0.00000000
  ---------------------------------------------------
  free energy    TOTEN  =       -19.92501649 eV

  energy without entropy =      -19.92400691  energy(sigma->0) =      -19.92476410


--------------------------------------------------------------------------------------------------------




----------------------------------------- Iteration    1(   8)  ---------------------------------------


    POTLOK:  cpu time    0.0522: real time    0.0521
    SETDIJ:  cpu time    0.0050: real time    0.0050
     EDDAV:  cpu time    6.0916: real time    6.0885
       DOS:  cpu time    0.0063: real time    0.0063
    CHARGE:  cpu time    0.5264: real time    0.5260
    MIXING:  cpu time    0.0024: real time    0.0024
    --------------------------------------------
      LOOP:  cpu time    6.6844: real time    6.7725

 eigenvalue-minimisations  :  5408
 total energy-change (2. order) :-0.7297583E-02  (-0.6496599E-02)
 number of electron      60.0000028 magnetization 
 augmentation part       11.9485575 magnetization 

 Broyden mixing:
  rms(total) = 0.24622E-01    rms(broyden)= 0.24622E-01
  rms(prec ) = 0.29696E-01
  weight for this iteration     100.00

 eigenvalues of (default mixing * dielectric matrix)
  average eigenvalue GAMMA=   1.5004
  2.4540  1.1439  0.9033

 Free energy of the ion-electron system (eV)
  ---------------------------------------------------
  alpha Z        PSCENC =       181.73148386
  Ewald energy   TEWEN  =     -5122.39332091
  -Hartree energ DENC   =     -3693.28499123
  -exchange      EXHF   =         0.00000000
  -V(xc)+E(xc)   XCENC  =       227.23026749
  PAW double counting   =      7310.23238745    -7461.25916011
  entropy T*S    EENTRO =        -0.00098028
  eigenvalues    EBANDS =     -1509.97560367
  atomic energy  EATOM  =     10047.78760332
  Solvation  Ediel_sol  =         0.00000000
  ---------------------------------------------------
  free energy    TOTEN  =       -19.93231408 eV

  energy without entropy =      -19.93133380  energy(sigma->0) =      -19.93206901


--------------------------------------------------------------------------------------------------------




----------------------------------------- Iteration    1(   9)  ---------------------------------------


    POTLOK:  cpu time    0.0512: real time    0.0527
    SETDIJ:  cpu time    0.0049: real time    0.0049
     EDDAV:  cpu time    7.8444: real time    7.8405
       DOS:  cpu time    0.0063: real time    0.0063
    CHARGE:  cpu time    0.5251: real time    0.5249
    MIXING:  cpu time    0.0025: real time    0.0025
    --------------------------------------------
      LOOP:  cpu time    8.4366: real time    8.5328

 eigenvalue-minimisations  :  7448
 total energy-change (2. order) :-0.2156328E-03  (-0.5733781E-03)
 number of electron      60.0000028 magnetization 
 augmentation part       11.9399907 magnetization 

 Broyden mixing:
  rms(total) = 0.10357E-01    rms(broyden)= 0.10357E-01
  rms(prec ) = 0.12565E-01
  weight for this iteration     100.00

 eigenvalues of (default mixing * dielectric matrix)
  average eigenvalue GAMMA=   1.5309
  2.6045  0.9352  1.0982  1.4857

 Free energy of the ion-electron system (eV)
  ---------------------------------------------------
  alpha Z        PSCENC =       181.73148386
  Ewald energy   TEWEN  =     -5122.39332091
  -Hartree energ DENC   =     -3693.24687782
  -exchange      EXHF   =         0.00000000
  -V(xc)+E(xc)   XCENC  =       227.22583075
  PAW double counting   =      7316.27512411    -7467.36315634
  entropy T*S    EENTRO =        -0.00093909
  eigenvalues    EBANDS =     -1509.94827759
  atomic energy  EATOM  =     10047.78760332
  Solvation  Ediel_sol  =         0.00000000
  ---------------------------------------------------
  free energy    TOTEN  =       -19.93252971 eV

  energy without entropy =      -19.93159062  energy(sigma->0) =      -19.93229494


--------------------------------------------------------------------------------------------------------




----------------------------------------- Iteration    1(  10)  ---------------------------------------


    POTLOK:  cpu time    0.0508: real time    0.0523
    SETDIJ:  cpu time    0.0050: real time    0.0050
     EDDAV:  cpu time    6.2307: real time    6.2276
       DOS:  cpu time    0.0063: real time    0.0063
    CHARGE:  cpu time    0.5260: real time    0.5256
    MIXING:  cpu time    0.0025: real time    0.0025
    --------------------------------------------
      LOOP:  cpu time    6.8234: real time    6.9032

 eigenvalue-minimisations  :  5568
 total energy-change (2. order) :-0.2957207E-03  (-0.9269774E-04)
 number of electron      60.0000028 magnetization 
 augmentation part       11.9385049 magnetization 

 Broyden mixing:
  rms(total) = 0.49404E-02    rms(broyden)= 0.49404E-02
  rms(prec ) = 0.58878E-02
  weight for this iteration     100.00

 eigenvalues of (default mixing * dielectric matrix)
  average eigenvalue GAMMA=   1.5804
  2.5493  2.3192  0.9273  0.9273  1.1786

 Free energy of the ion-electron system (eV)
  ---------------------------------------------------
  alpha Z        PSCENC =       181.73148386
  Ewald energy   TEWEN  =     -5122.39332091
  -Hartree energ DENC   =     -3693.27861433
  -exchange      EXHF   =         0.00000000
  -V(xc)+E(xc)   XCENC  =       227.23297611
  PAW double counting   =      7318.89946636    -7470.01369620
  entropy T*S    EENTRO =        -0.00095228
  eigenvalues    EBANDS =     -1509.89777136
  atomic energy  EATOM  =     10047.78760332
  Solvation  Ediel_sol  =         0.00000000
  ---------------------------------------------------
  free energy    TOTEN  =       -19.93282543 eV

  energy without entropy =      -19.93187315  energy(sigma->0) =      -19.93258736


--------------------------------------------------------------------------------------------------------




----------------------------------------- Iteration    1(  11)  ---------------------------------------


    POTLOK:  cpu time    0.0521: real time    0.0521
    SETDIJ:  cpu time    0.0049: real time    0.0049
     EDDAV:  cpu time    6.4518: real time    6.4497
       DOS:  cpu time    0.0064: real time    0.0064
    CHARGE:  cpu time    0.5268: real time    0.5265
    MIXING:  cpu time    0.0025: real time    0.0025
    --------------------------------------------
      LOOP:  cpu time    7.0452: real time    7.1631

 eigenvalue-minimisations  :  5820
 total energy-change (2. order) :-0.5537952E-04  (-0.1932613E-04)
 number of electron      60.0000028 magnetization 
 augmentation part       11.9391117 magnetization 

 Broyden mixing:
  rms(total) = 0.10716E-02    rms(broyden)= 0.10716E-02
  rms(prec ) = 0.14544E-02
  weight for this iteration     100.00

 eigenvalues of (default mixing * dielectric matrix)
  average eigenvalue GAMMA=   1.5662
  2.7001  2.4117  0.9169  0.9169  1.2258  1.2258

 Free energy of the ion-electron system (eV)
  ---------------------------------------------------
  alpha Z        PSCENC =       181.73148386
  Ewald energy   TEWEN  =     -5122.39332091
  -Hartree energ DENC   =     -3693.20558069
  -exchange      EXHF   =         0.00000000
  -V(xc)+E(xc)   XCENC  =       227.23500097
  PAW double counting   =      7319.58431772    -7470.67486498
  entropy T*S    EENTRO =        -0.00095179
  eigenvalues    EBANDS =     -1509.99656832
  atomic energy  EATOM  =     10047.78760332
  Solvation  Ediel_sol  =         0.00000000
  ---------------------------------------------------
  free energy    TOTEN  =       -19.93288081 eV

  energy without entropy =      -19.93192902  energy(sigma->0) =      -19.93264286


--------------------------------------------------------------------------------------------------------




----------------------------------------- Iteration    1(  12)  ---------------------------------------


    POTLOK:  cpu time    0.0522: real time    0.0522
    SETDIJ:  cpu time    0.0049: real time    0.0049
     EDDAV:  cpu time    7.5824: real time    7.5788
       DOS:  cpu time    0.0063: real time    0.0063
    CHARGE:  cpu time    0.5262: real time    0.5258
    MIXING:  cpu time    0.0026: real time    0.0026
    --------------------------------------------
      LOOP:  cpu time    8.1753: real time    8.2683

 eigenvalue-minimisations  :  7126
 total energy-change (2. order) :-0.8753330E-05  (-0.3600868E-05)
 number of electron      60.0000028 magnetization 
 augmentation part       11.9384021 magnetization 

 Broyden mixing:
  rms(total) = 0.62969E-03    rms(broyden)= 0.62967E-03
  rms(prec ) = 0.75749E-03
  weight for this iteration     100.00

 eigenvalues of (default mixing * dielectric matrix)
  average eigenvalue GAMMA=   1.5931
  2.7245  2.7245  1.7094  1.0288  1.0288  0.9677  0.9677

 Free energy of the ion-electron system (eV)
  ---------------------------------------------------
  alpha Z        PSCENC =       181.73148386
  Ewald energy   TEWEN  =     -5122.39332091
  -Hartree energ DENC   =     -3693.27779792
  -exchange      EXHF   =         0.00000000
  -V(xc)+E(xc)   XCENC  =       227.23662416
  PAW double counting   =      7320.07524579    -7471.17468214
  entropy T*S    EENTRO =        -0.00094891
  eigenvalues    EBANDS =     -1509.91709681
  atomic energy  EATOM  =     10047.78760332
  Solvation  Ediel_sol  =         0.00000000
  ---------------------------------------------------
  free energy    TOTEN  =       -19.93288956 eV

  energy without entropy =      -19.93194065  energy(sigma->0) =      -19.93265234


--------------------------------------------------------------------------------------------------------




----------------------------------------- Iteration    1(  13)  ---------------------------------------


    POTLOK:  cpu time    0.0521: real time    0.0522
    SETDIJ:  cpu time    0.0049: real time    0.0049
     EDDAV:  cpu time    6.4782: real time    6.4757
       DOS:  cpu time    0.0061: real time    0.0061
    --------------------------------------------
      LOOP:  cpu time    6.5419: real time    6.6262

 eigenvalue-minimisations  :  5852
 total energy-change (2. order) :-0.3799378E-06  (-0.3759505E-06)
 number of electron      60.0000028 magnetization 
 augmentation part       11.9384021 magnetization 

 Free energy of the ion-electron system (eV)
  ---------------------------------------------------
  alpha Z        PSCENC =       181.73148386
  Ewald energy   TEWEN  =     -5122.39332091
  -Hartree energ DENC   =     -3693.30268186
  -exchange      EXHF   =         0.00000000
  -V(xc)+E(xc)   XCENC  =       227.23751583
  PAW double counting   =      7319.88462264    -7470.98022948
  entropy T*S    EENTRO =        -0.00094929
  eigenvalues    EBANDS =     -1509.89693405
  atomic energy  EATOM  =     10047.78760332
  Solvation  Ediel_sol  =         0.00000000
  ---------------------------------------------------
  free energy    TOTEN  =       -19.93288994 eV

  energy without entropy =      -19.93194066  energy(sigma->0) =      -19.93265262


--------------------------------------------------------------------------------------------------------




 average (electrostatic) potential at core
  the test charge radii are     1.0856  1.0808
  (the norm of the test charge is              1.0000)
       1-129.8062       2-129.8062       3 -54.3809       4 -54.5415       5 -54.5415
 
 
 
 E-fermi :   3.1968     XC(G=0):  -8.8104     alpha+bet : -8.6845


 k-point     1 :       0.0000    0.0000    0.0000
  band No.  band energies     occupation 
      1     -88.3600      2.00000
      2     -88.3591      2.00000
      3     -88.3589      2.00000
      4     -88.3589      2.00000
      5     -88.3585      2.00000
      6     -88.3585      2.00000
      7     -19.6520      2.00000
      8     -19.6520      2.00000
      9     -19.6517      2.00000
     10     -19.6517      2.00000
     11     -19.6515      2.00000
     12     -19.6505      2.00000
     13     -19.6391      2.00000
     14     -19.6391      2.00000
     15     -19.6388      2.00000
     16     -19.6388      2.00000
     17     -10.0359      2.00000
     18      -9.5343      2.00000
     19      -8.7227      2.00000
     20      -6.1578      2.00000
     21      -5.4979      2.00000
     22       1.5435      2.00000
     23       1.6800      2.00000
     24       1.8739      2.00000
     25       1.8739      2.00000
     26       1.9570      2.00000
     27       1.9570      2.00000
     28       2.4506      1.99999
     29       2.4506      1.99999
     30       3.1569      1.40973
     31       3.6245      0.00918
     32       4.8442      0.00000
     33       4.8442      0.00000
     34       5.3666      0.00000
     35       5.8288      0.00000
     36       5.8288      0.00000
     37       9.4414      0.00000
     38       9.7214      0.00000

 k-point     2 :       0.1250    0.0000    0.0000
  band No.  band energies     occupation 
      1     -88.3601      2.00000
      2     -88.3593      2.00000
      3     -88.3586      2.00000
      4     -88.3585      2.00000
      5     -88.3583      2.00000
      6     -88.3583      2.00000
      7     -19.6525      2.00000
      8     -19.6522      2.00000
      9     -19.6500      2.00000
     10     -19.6495      2.00000
     11     -19.6493      2.00000
     12     -19.6490      2.00000
     13     -19.6410      2.00000
     14     -19.6399      2.00000
     15     -19.6397      2.00000
     16     -19.6386      2.00000
     17      -9.9194      2.00000
     18      -9.4350      2.00000
     19      -8.6701      2.00000
     20      -6.2269      2.00000
     21      -5.6421      2.00000
     22       0.9031      2.00000
     23       1.0991      2.00000
     24       1.5130      2.00000
     25       1.5293      2.00000
     26       1.9326      2.00000
     27       2.2281      2.00000
     28       2.4094      2.00000
     29       2.5325      1.99988
     30       2.7597      1.99138
     31       4.3877      0.00000
     32       5.0002      0.00000
     33       5.1405      0.00000
     34       5.3607      0.00000
     35       5.8985      0.00000
     36       6.0903      0.00000
     37       9.2028      0.00000
     38       9.7084      0.00000

 k-point     3 :       0.2500    0.0000    0.0000
  band No.  band energies     occupation 
      1     -88.3599      2.00000
      2     -88.3595      2.00000
      3     -88.3586      2.00000
      4     -88.3583      2.00000
      5     -88.3582      2.00000
      6     -88.3582      2.00000
      7     -19.6546      2.00000
      8     -19.6539      2.00000
      9     -19.6467      2.00000
     10     -19.6455      2.00000
     11     -19.6446      2.00000
     12     -19.6446      2.00000
     13     -19.6440      2.00000
     14     -19.6427      2.00000
     15     -19.6403      2.00000
     16     -19.6385      2.00000
     17      -9.5848      2.00000
     18      -9.1645      2.00000
     19      -8.5416      2.00000
     20      -6.4616      2.00000
     21      -6.0311      2.00000
     22      -0.0268      2.00000
     23       0.5271      2.00000
     24       0.8471      2.00000
     25       1.0765      2.00000
     26       1.5082      2.00000
     27       1.9018      2.00000
     28       2.3645      2.00000
     29       2.4352      1.99999
     30       2.8321      1.99331
     31       4.5183      0.00000
     32       5.2021      0.00000
     33       5.4129      0.00000
     34       5.8901      0.00000
     35       6.2791      0.00000
     36       6.9234      0.00000
     37       8.3877      0.00000
     38       9.8092      0.00000

 k-point     4 :       0.3750    0.0000    0.0000
  band No.  band energies     occupation 
      1     -88.3598      2.00000
      2     -88.3595      2.00000
      3     -88.3586      2.00000
      4     -88.3582      2.00000
      5     -88.3582      2.00000
      6     -88.3580      2.00000
      7     -19.6570      2.00000
      8     -19.6558      2.00000
      9     -19.6492      2.00000
     10     -19.6468      2.00000
     11     -19.6427      2.00000
     12     -19.6418      2.00000
     13     -19.6408      2.00000
     14     -19.6408      2.00000
     15     -19.6376      2.00000
     16     -19.6368      2.00000
     17      -9.0911      2.00000
     18      -8.8306      2.00000
     19      -8.4411      2.00000
     20      -6.8421      2.00000
     21      -6.5007      2.00000
     22      -0.7849      2.00000
     23       0.2994      2.00000
     24       0.6186      2.00000
     25       0.7593      2.00000
     26       1.1569      2.00000
     27       1.2583      2.00000
     28       2.0934      2.00000
     29       2.4127      2.00000
     30       2.7360      1.99306
     31       4.3742      0.00000
     32       5.3865      0.00000
     33       5.6926      0.00000
     34       6.2273      0.00000
     35       6.7665      0.00000
     36       7.3073      0.00000
     37       7.9585      0.00000
     38       9.8264      0.00000

 k-point     5 :       0.5000    0.0000    0.0000
  band No.  band energies     occupation 
      1     -88.3595      2.00000
      2     -88.3595      2.00000
      3     -88.3585      2.00000
      4     -88.3584      2.00000
      5     -88.3578      2.00000
      6     -88.3577      2.00000
      7     -19.6581      2.00000
      8     -19.6568      2.00000
      9     -19.6504      2.00000
     10     -19.6477      2.00000
     11     -19.6428      2.00000
     12     -19.6405      2.00000
     13     -19.6400      2.00000
     14     -19.6391      2.00000
     15     -19.6356      2.00000
     16     -19.6350      2.00000
     17      -8.6697      2.00000
     18      -8.6252      2.00000
     19      -8.5851      2.00000
     20      -7.0437      2.00000
     21      -6.7586      2.00000
     22      -1.0609      2.00000
     23       0.4032      2.00000
     24       0.4376      2.00000
     25       0.6450      2.00000
     26       1.0299      2.00000
     27       1.0500      2.00000
     28       1.8210      2.00000
     29       2.3947      2.00000
     30       2.7337      1.99323
     31       4.3109      0.00000
     32       5.3505      0.00000
     33       6.0362      0.00000
     34       6.2330      0.00000
     35       6.9516      0.00000
     36       7.2348      0.00000
     37       7.8369      0.00000
     38       9.5955      0.00000

 k-point     6 :       0.1250    0.1250    0.0000
  band No.  band energies     occupation 
      1     -88.3599      2.00000
      2     -88.3592      2.00000
      3     -88.3585      2.00000
      4     -88.3584      2.00000
      5     -88.3583      2.00000
      6     -88.3582      2.00000
      7     -19.6524      2.00000
      8     -19.6521      2.00000
      9     -19.6499      2.00000
     10     -19.6495      2.00000
     11     -19.6493      2.00000
     12     -19.6489      2.00000
     13     -19.6409      2.00000
     14     -19.6398      2.00000
     15     -19.6397      2.00000
     16     -19.6385      2.00000
     17      -9.9169      2.00000
     18      -9.4413      2.00000
     19      -8.6646      2.00000
     20      -6.2320      2.00000
     21      -5.6388      2.00000
     22       0.9111      2.00000
     23       1.1441      2.00000
     24       1.5018      2.00000
     25       1.5103      2.00000
     26       1.9305      2.00000
     27       2.0284      2.00000
     28       2.4206      2.00000
     29       2.6983      1.99576
     30       2.8320      1.99330
     31       4.3016      0.00000
     32       4.9037      0.00000
     33       5.0843      0.00000
     34       5.4564      0.00000
     35       5.9606      0.00000
     36       6.1294      0.00000
     37       9.2675      0.00000
     38       9.6351      0.00000

 k-point     7 :       0.2500    0.1250    0.0000
  band No.  band energies     occupation 
      1     -88.3599      2.00000
      2     -88.3594      2.00000
      3     -88.3587      2.00000
      4     -88.3584      2.00000
      5     -88.3584      2.00000
      6     -88.3583      2.00000
      7     -19.6524      2.00000
      8     -19.6521      2.00000
      9     -19.6498      2.00000
     10     -19.6490      2.00000
     11     -19.6451      2.00000
     12     -19.6443      2.00000
     13     -19.6432      2.00000
     14     -19.6428      2.00000
     15     -19.6395      2.00000
     16     -19.6392      2.00000
     17      -9.6891      2.00000
     18      -9.2597      2.00000
     19      -8.5704      2.00000
     20      -6.3789      2.00000
     21      -5.9141      2.00000
     22       0.3661      2.00000
     23       0.5581      2.00000
     24       0.8970      2.00000
     25       1.2890      2.00000
     26       1.5422      2.00000
     27       1.7129      2.00000
     28       2.4814      1.99997
     29       2.7682      1.99087
     30       2.8757      2.00852
     31       4.6110      0.00000
     32       4.8452      0.00000
     33       5.2416      0.00000
     34       5.9498      0.00000
     35       6.3409      0.00000
     36       6.5957      0.00000
     37       9.0292      0.00000
     38       9.0929      0.00000

 k-point     8 :       0.3750    0.1250    0.0000
  band No.  band energies     occupation 
      1     -88.3598      2.00000
      2     -88.3596      2.00000
      3     -88.3584      2.00000
      4     -88.3583      2.00000
      5     -88.3583      2.00000
      6     -88.3581      2.00000
      7     -19.6537      2.00000
      8     -19.6531      2.00000
      9     -19.6477      2.00000
     10     -19.6464      2.00000
     11     -19.6454      2.00000
     12     -19.6445      2.00000
     13     -19.6428      2.00000
     14     -19.6407      2.00000
     15     -19.6388      2.00000
     16     -19.6382      2.00000
     17      -9.2699      2.00000
     18      -8.9486      2.00000
     19      -8.4452      2.00000
     20      -6.6814      2.00000
     21      -6.3742      2.00000
     22      -0.3457      2.00000
     23       0.0867      2.00000
     24       0.4975      2.00000
     25       0.7975      2.00000
     26       1.0818      2.00000
     27       1.6942      2.00000
     28       2.2961      2.00000
     29       2.4263      2.00000
     30       2.7121      1.99483
     31       4.8699      0.00000
     32       5.1809      0.00000
     33       5.4674      0.00000
     34       6.1652      0.00000
     35       6.7230      0.00000
     36       7.2265      0.00000
     37       8.5013      0.00000
     38       9.5889      0.00000

 k-point     9 :       0.5000    0.1250    0.0000
  band No.  band energies     occupation 
      1     -88.3596      2.00000
      2     -88.3596      2.00000
      3     -88.3584      2.00000
      4     -88.3583      2.00000
      5     -88.3578      2.00000
      6     -88.3578      2.00000
      7     -19.6554      2.00000
      8     -19.6542      2.00000
      9     -19.6496      2.00000
     10     -19.6472      2.00000
     11     -19.6436      2.00000
     12     -19.6415      2.00000
     13     -19.6411      2.00000
     14     -19.6399      2.00000
     15     -19.6371      2.00000
     16     -19.6365      2.00000
     17      -8.7662      2.00000
     18      -8.6661      2.00000
     19      -8.4413      2.00000
     20      -7.0118      2.00000
     21      -6.7836      2.00000
     22      -0.8889      2.00000
     23       0.0527      2.00000
     24       0.2780      2.00000
     25       0.4226      2.00000
     26       1.1928      2.00000
     27       1.4497      2.00000
     28       1.9371      2.00000
     29       2.0997      2.00000
     30       2.5419      1.99985
     31       4.9816      0.00000
     32       5.4707      0.00000
     33       5.8197      0.00000
     34       6.4592      0.00000
     35       6.6049      0.00000
     36       7.3468      0.00000
     37       8.3077      0.00000
     38       9.5492      0.00000

 k-point    10 :      -0.3750    0.1250    0.0000
  band No.  band energies     occupation 
      1     -88.3598      2.00000
      2     -88.3597      2.00000
      3     -88.3585      2.00000
      4     -88.3584      2.00000
      5     -88.3580      2.00000
      6     -88.3579      2.00000
      7     -19.6554      2.00000
      8     -19.6543      2.00000
      9     -19.6496      2.00000
     10     -19.6472      2.00000
     11     -19.6437      2.00000
     12     -19.6415      2.00000
     13     -19.6412      2.00000
     14     -19.6401      2.00000
     15     -19.6372      2.00000
     16     -19.6366      2.00000
     17      -8.7828      2.00000
     18      -8.6403      2.00000
     19      -8.4494      2.00000
     20      -7.0213      2.00000
     21      -6.7750      2.00000
     22      -0.9204      2.00000
     23       0.0826      2.00000
     24       0.2937      2.00000
     25       0.5334      2.00000
     26       1.0545      2.00000
     27       1.4705      2.00000
     28       1.8079      2.00000
     29       2.1926      2.00000
     30       2.5536      1.99979
     31       4.9746      0.00000
     32       5.4100      0.00000
     33       6.0058      0.00000
     34       6.4002      0.00000
     35       6.6931      0.00000
     36       7.2074      0.00000
     37       8.2378      0.00000
     38       9.7291      0.00000

 k-point    11 :      -0.2500    0.1250    0.0000
  band No.  band energies     occupation 
      1     -88.3598      2.00000
      2     -88.3596      2.00000
      3     -88.3584      2.00000
      4     -88.3583      2.00000
      5     -88.3582      2.00000
      6     -88.3581      2.00000
      7     -19.6537      2.00000
      8     -19.6530      2.00000
      9     -19.6477      2.00000
     10     -19.6464      2.00000
     11     -19.6454      2.00000
     12     -19.6444      2.00000
     13     -19.6427      2.00000
     14     -19.6407      2.00000
     15     -19.6388      2.00000
     16     -19.6382      2.00000
     17      -9.2829      2.00000
     18      -8.9167      2.00000
     19      -8.4685      2.00000
     20      -6.6655      2.00000
     21      -6.3858      2.00000
     22      -0.4145      2.00000
     23       0.1660      2.00000
     24       0.6445      2.00000
     25       0.8400      2.00000
     26       0.9204      2.00000
     27       1.5708      2.00000
     28       2.2554      2.00000
     29       2.5635      1.99974
     30       2.6995      1.99568
     31       4.8835      0.00000
     32       5.0621      0.00000
     33       5.5518      0.00000
     34       6.2352      0.00000
     35       6.7915      0.00000
     36       7.1250      0.00000
     37       8.4245      0.00000
     38       9.5648      0.00000

 k-point    12 :      -0.1250    0.1250    0.0000
  band No.  band energies     occupation 
      1     -88.3600      2.00000
      2     -88.3594      2.00000
      3     -88.3586      2.00000
      4     -88.3585      2.00000
      5     -88.3584      2.00000
[...]
     28       2.2149      2.00000
     29       2.5112      1.99994
     30       2.6472      1.99825
     31       5.0367      0.00000
     32       5.3596      0.00000
     33       5.5400      0.00000
     34       6.3965      0.00000
     35       7.1411      0.00000
     36       7.3665      0.00000
     37       9.3408      0.00000
     38       9.3932      0.00000

 k-point    59 :      -0.3750   -0.3750    0.2500
  band No.  band energies     occupation 
      1     -88.3597      2.00000
      2     -88.3596      2.00000
      3     -88.3584      2.00000
      4     -88.3582      2.00000
      5     -88.3580      2.00000
      6     -88.3578      2.00000
      7     -19.6569      2.00000
      8     -19.6557      2.00000
      9     -19.6491      2.00000
     10     -19.6466      2.00000
     11     -19.6427      2.00000
     12     -19.6418      2.00000
     13     -19.6408      2.00000
     14     -19.6406      2.00000
     15     -19.6376      2.00000
     16     -19.6367      2.00000
     17      -9.0546      2.00000
     18      -8.8891      2.00000
     19      -8.4220      2.00000
     20      -6.8067      2.00000
     21      -6.5341      2.00000
     22      -0.6746      2.00000
     23       0.0140      2.00000
     24       0.6111      2.00000
     25       0.7095      2.00000
     26       1.2589      2.00000
     27       1.4303      2.00000
     28       2.2897      2.00000
     29       2.3303      2.00000
     30       2.6002      1.99936
     31       4.4920      0.00000
     32       5.3854      0.00000
     33       5.4774      0.00000
     34       6.1704      0.00000
     35       6.7082      0.00000
     36       7.5376      0.00000
     37       8.0052      0.00000
     38       9.6719      0.00000

 k-point    60 :       0.3750    0.3750    0.3750
  band No.  band energies     occupation 
      1     -88.3598      2.00000
      2     -88.3594      2.00000
      3     -88.3586      2.00000
      4     -88.3586      2.00000
      5     -88.3581      2.00000
      6     -88.3581      2.00000
      7     -19.6518      2.00000
      8     -19.6518      2.00000
      9     -19.6518      2.00000
     10     -19.6514      2.00000
     11     -19.6514      2.00000
     12     -19.6506      2.00000
     13     -19.6389      2.00000
     14     -19.6389      2.00000
     15     -19.6386      2.00000
     16     -19.6386      2.00000
     17      -9.9794      2.00000
     18      -9.6567      2.00000
     19      -8.6178      2.00000
     20      -6.3079      2.00000
     21      -5.3780      2.00000
     22       1.3201      2.00000
     23       1.8265      2.00000
     24       1.8265      2.00000
     25       1.9829      2.00000
     26       2.0518      2.00000
     27       2.0518      2.00000
     28       2.3858      2.00000
     29       2.3858      2.00000
     30       2.8943      2.02007
     31       3.8777      0.00007
     32       4.9618      0.00000
     33       4.9618      0.00000
     34       5.2605      0.00000
     35       5.7019      0.00000
     36       5.7019      0.00000
     37       9.4508      0.00000
     38       9.9950      0.00000

 k-point    61 :       0.5000    0.3750    0.3750
  band No.  band energies     occupation 
      1     -88.3598      2.00000
      2     -88.3598      2.00000
      3     -88.3587      2.00000
      4     -88.3584      2.00000
      5     -88.3584      2.00000
      6     -88.3583      2.00000
      7     -19.6526      2.00000
      8     -19.6522      2.00000
      9     -19.6501      2.00000
     10     -19.6496      2.00000
     11     -19.6494      2.00000
     12     -19.6488      2.00000
     13     -19.6411      2.00000
     14     -19.6399      2.00000
     15     -19.6397      2.00000
     16     -19.6386      2.00000
     17      -9.8576      2.00000
     18      -9.5654      2.00000
     19      -8.5642      2.00000
     20      -6.3617      2.00000
     21      -5.5406      2.00000
     22       0.8226      2.00000
     23       1.2768      2.00000
     24       1.5656      2.00000
     25       1.5804      2.00000
     26       1.7920      2.00000
     27       1.8709      2.00000
     28       2.5001      1.99995
     29       2.6530      1.99804
     30       2.9440      2.06336
     31       4.2676      0.00000
     32       4.8124      0.00000
     33       5.0957      0.00000
     34       5.5779      0.00000
     35       5.9181      0.00000
     36       6.1333      0.00000
     37       9.2927      0.00000
     38       9.8170      0.00000

 k-point    62 :      -0.3750    0.3750    0.3750
  band No.  band energies     occupation 
      1     -88.3598      2.00000
      2     -88.3596      2.00000
      3     -88.3585      2.00000
      4     -88.3584      2.00000
      5     -88.3583      2.00000
      6     -88.3582      2.00000
      7     -19.6546      2.00000
      8     -19.6538      2.00000
      9     -19.6468      2.00000
     10     -19.6455      2.00000
     11     -19.6447      2.00000
     12     -19.6447      2.00000
     13     -19.6440      2.00000
     14     -19.6428      2.00000
     15     -19.6402      2.00000
     16     -19.6385      2.00000
     17      -9.5250      2.00000
     18      -9.2838      2.00000
     19      -8.4601      2.00000
     20      -6.5207      2.00000
     21      -5.9956      2.00000
     22      -0.1181      2.00000
     23       0.6046      2.00000
     24       1.0718      2.00000
     25       1.0900      2.00000
     26       1.4739      2.00000
     27       1.6797      2.00000
     28       2.2437      2.00000
     29       2.4753      1.99998
     30       2.9600      2.07843
     31       4.3172      0.00000
     32       5.2770      0.00000
     33       5.5524      0.00000
     34       6.0066      0.00000
     35       6.4301      0.00000
     36       6.6358      0.00000
     37       8.5609      0.00000
     38       9.8552      0.00000

 k-point    63 :       0.5000    0.5000    0.3750
  band No.  band energies     occupation 
      1     -88.3599      2.00000
      2     -88.3598      2.00000
      3     -88.3587      2.00000
      4     -88.3584      2.00000
      5     -88.3584      2.00000
      6     -88.3583      2.00000
      7     -19.6525      2.00000
      8     -19.6521      2.00000
      9     -19.6501      2.00000
     10     -19.6496      2.00000
     11     -19.6494      2.00000
     12     -19.6489      2.00000
     13     -19.6411      2.00000
     14     -19.6400      2.00000
     15     -19.6397      2.00000
     16     -19.6385      2.00000
     17      -9.8533      2.00000
     18      -9.5726      2.00000
     19      -8.5596      2.00000
     20      -6.3659      2.00000
     21      -5.5383      2.00000
     22       0.8318      2.00000
     23       1.3654      2.00000
     24       1.5581      2.00000
     25       1.5760      2.00000
     26       1.6876      2.00000
     27       1.7934      2.00000
     28       2.5098      1.99994
     29       2.7240      1.99396
     30       3.0431      2.07231
     31       4.1653      0.00000
     32       4.7673      0.00000
     33       5.0431      0.00000
     34       5.6245      0.00000
     35       5.9764      0.00000
     36       6.1733      0.00000
     37       9.3661      0.00000
     38       9.7015      0.00000

 k-point    64 :      -0.3750    0.5000    0.3750
  band No.  band energies     occupation 
      1     -88.3599      2.00000
      2     -88.3598      2.00000
      3     -88.3586      2.00000
      4     -88.3586      2.00000
      5     -88.3584      2.00000
      6     -88.3584      2.00000
      7     -19.6524      2.00000
      8     -19.6523      2.00000
      9     -19.6499      2.00000
     10     -19.6489      2.00000
     11     -19.6453      2.00000
     12     -19.6443      2.00000
     13     -19.6434      2.00000
     14     -19.6430      2.00000
     15     -19.6396      2.00000
     16     -19.6391      2.00000
     17      -9.6302      2.00000
     18      -9.3772      2.00000
     19      -8.4856      2.00000
     20      -6.4631      2.00000
     21      -5.8560      2.00000
     22       0.2152      2.00000
     23       0.5375      2.00000
     24       1.1332      2.00000
     25       1.4022      2.00000
     26       1.6498      2.00000
     27       1.9801      2.00000
     28       1.9896      2.00000
     29       2.5645      1.99973
     30       2.7503      1.99201
     31       4.8335      0.00000
     32       5.1445      0.00000
     33       5.3143      0.00000
     34       5.8607      0.00000
     35       6.2867      0.00000
     36       6.3831      0.00000
     37       9.1770      0.00000
     38       9.4112      0.00000

 k-point    65 :       0.5000    0.5000    0.5000
  band No.  band energies     occupation 
      1     -88.3595      2.00000
      2     -88.3593      2.00000
      3     -88.3585      2.00000
      4     -88.3585      2.00000
      5     -88.3580      2.00000
      6     -88.3580      2.00000
      7     -19.6518      2.00000
      8     -19.6518      2.00000
      9     -19.6517      2.00000
     10     -19.6513      2.00000
     11     -19.6513      2.00000
     12     -19.6504      2.00000
     13     -19.6388      2.00000
     14     -19.6388      2.00000
     15     -19.6385      2.00000
     16     -19.6385      2.00000
     17      -9.9660      2.00000
     18      -9.6800      2.00000
     19      -8.6009      2.00000
     20      -6.3305      2.00000
     21      -5.3608      2.00000
     22       1.2986      2.00000
     23       1.8215      2.00000
     24       1.8215      2.00000
     25       2.0225      2.00000
     26       2.0673      2.00000
     27       2.0673      2.00000
     28       2.3725      2.00000
     29       2.3725      2.00000
     30       2.8544      1.99918
     31       3.9135      0.00003
     32       4.9859      0.00000
     33       4.9859      0.00000
     34       5.2405      0.00000
     35       5.6763      0.00000
     36       5.6763      0.00000
     37       9.4439      0.00000
     38      10.2475      0.00000


--------------------------------------------------------------------------------------------------------


 soft charge-density along one line, spin component           1
         0         1         2         3         4         5         6         7         8         9
 total charge-density along one line
 
 pseudopotential strength for first ion, spin component:           1
-65.363  -0.000  -0.000  12.228   0.000   0.000  -0.008  -0.036
 -0.000 -65.365  -0.000   0.000  12.228   0.000  -0.002  -0.007
 -0.000  -0.000 -65.363   0.000   0.000  12.228   0.002  -0.002
 12.228   0.000   0.000   4.101  -0.000  -0.000   0.001   0.007
  0.000  12.228   0.000  -0.000   4.101  -0.000   0.000   0.001
  0.000   0.000  12.228  -0.000  -0.000   4.101   0.000   0.000
 -0.008  -0.002   0.002   0.001   0.000   0.000 -17.790   0.000
 -0.036  -0.007  -0.002   0.007   0.001   0.000   0.000 -17.788
  0.002  -0.052   0.003  -0.000   0.009  -0.001  -0.002  -0.001
 -0.002  -0.011  -0.038   0.000   0.002   0.007   0.004  -0.002
  0.011  -0.001  -0.008  -0.001   0.000   0.001   0.002   0.004
 -0.007  -0.002   0.002   0.001   0.000   0.000 -17.269   0.000
 -0.034  -0.006  -0.002   0.006   0.001   0.000   0.000 -17.267
  0.001  -0.050   0.002  -0.000   0.008  -0.001  -0.002  -0.001
 -0.002  -0.010  -0.036   0.000   0.002   0.006   0.004  -0.002
  0.011  -0.001  -0.008  -0.001   0.000   0.001   0.002   0.004
  0.003   0.028   0.006   0.001   0.005   0.001   0.000   0.000
 -0.005  -0.039  -0.008  -0.001  -0.007  -0.001   0.000   0.000
 total augmentation occupancy for first ion, spin component:           1
  2.000  -0.000  -0.000   0.003   0.000   0.000   0.002   0.009  -0.001  -0.000   0.000  -0.002  -0.009   0.001   0.000  -0.001
 -0.000   2.000  -0.000   0.000   0.003   0.000  -0.000   0.001   0.008   0.001  -0.000   0.000  -0.001  -0.008  -0.001   0.000
 -0.000  -0.000   2.000   0.000   0.000   0.003   0.003  -0.000  -0.001   0.009   0.002  -0.003   0.000   0.002  -0.009  -0.002
  0.003   0.000   0.000   0.735  -0.000  -0.000  -0.076  -0.363   0.070   0.079  -0.242   0.075   0.360  -0.069  -0.078   0.237
  0.000   0.003   0.000  -0.000   0.733  -0.000   0.079   0.045   0.040   0.075   0.043  -0.078  -0.043  -0.035  -0.073  -0.042
  0.000   0.000   0.003  -0.000  -0.000   0.735  -0.319   0.079   0.118  -0.276  -0.055   0.314  -0.078  -0.117   0.275   0.054
  0.002  -0.000   0.003  -0.076   0.079  -0.319   4.167   0.157  -0.551   1.189   0.508  -2.115  -0.155   0.547  -1.179  -0.503
  0.009   0.001  -0.000  -0.363   0.045   0.079   0.157   4.889  -0.251  -0.638   1.052  -0.155  -2.828   0.248   0.633  -1.044
 -0.001   0.008  -0.001   0.070   0.040   0.118  -0.551  -0.251   3.079  -0.422  -0.300   0.547   0.248  -1.032   0.418   0.298
 -0.000   0.001   0.009   0.079   0.075  -0.276   1.189  -0.638  -0.422   4.194   0.074  -1.179   0.633   0.418  -2.138  -0.072
  0.000  -0.000   0.002  -0.242   0.043  -0.055   0.508   1.052  -0.300   0.074   3.511  -0.503  -1.044   0.298  -0.072  -1.465
 -0.002   0.000  -0.003   0.075  -0.078   0.314  -2.115  -0.155   0.547  -1.179  -0.503   2.060   0.153  -0.542   1.169   0.499
 -0.009  -0.001   0.000   0.360  -0.043  -0.078  -0.155  -2.828   0.248   0.633  -1.044   0.153   2.763  -0.246  -0.628   1.035
  0.001  -0.008   0.002  -0.069  -0.035  -0.117   0.547   0.248  -1.032   0.418   0.298  -0.542  -0.246   0.984  -0.414  -0.295
  0.000  -0.001  -0.009  -0.078  -0.073   0.275  -1.179   0.633   0.418  -2.138  -0.072   1.169  -0.628  -0.414   2.079   0.071
 -0.001   0.000  -0.002   0.237  -0.042   0.054  -0.503  -1.044   0.298  -0.072  -1.465   0.499   1.035  -0.295   0.071   1.415
  0.000   0.000   0.000  -0.006  -0.051  -0.011   0.001   0.004   0.018   0.007   0.000  -0.001  -0.004  -0.018  -0.007  -0.000
 -0.000  -0.000  -0.000   0.003   0.025   0.005   0.000   0.000   0.002   0.001   0.000  -0.000  -0.000  -0.002  -0.001  -0.000


------------------------ aborting loop because EDIFF is reached ----------------------------------------


    CHARGE:  cpu time    0.5275: real time    0.5271
    FORLOC:  cpu time    0.0042: real time    0.0042
    FORNL :  cpu time    1.7092: real time    1.7084
    STRESS:  cpu time    5.1278: real time    5.1258
    FORCOR:  cpu time    0.0564: real time    0.0564
    FORHAR:  cpu time    0.0149: real time    0.0149
    MIXING:  cpu time    0.0029: real time    0.0029
    OFIELD:  cpu time    0.0000: real time    0.0000

  FORCE on cell =-STRESS in cart. coord.  units (eV):
  Direction    XX          YY          ZZ          XY          YZ          ZX
  --------------------------------------------------------------------------------------
  Alpha Z   181.73148   181.73148   181.73148
  Ewald   -1264.00397 -1223.67908 -2634.71216   -37.02418  -177.54077  -298.84311
  Hartree  1618.33333  1653.54471   421.43262   -32.32954  -155.02829  -260.94950
  E(xc)    -307.33272  -307.33205  -307.35578    -0.00062    -0.00299    -0.00503
  Local   -1998.07421 -2073.59856   569.14877    69.34339   332.51907   559.70851
  n-local   344.76133   345.27509   344.50281     0.00038    -0.74215     0.15660
  augment   506.63308   506.63174   506.67266     0.00104     0.00512     0.00862
  Kinetic   907.66320   917.23736   913.54210     1.37483    -1.31578     1.34825
  Fock        0.00000     0.00000     0.00000     0.00000     0.00000     0.00000
  -------------------------------------------------------------------------------------
  Total      -5.22611    -5.23104    -5.05812     0.00454     0.02176     0.03662
  in kB     -49.99875   -50.04600   -48.39163     0.04341     0.20816     0.35039
  external pressure =      -49.48 kB  Pullay stress =        0.00 kB


 VOLUME and BASIS-vectors are now :
 -----------------------------------------------------------------------------
  energy-cutoff  :      441.00
  volume of cell :      167.47
      direct lattice vectors                 reciprocal lattice vectors
     4.239867000  0.000000000  9.723529000     0.235856455 -0.128441167  0.000000000
     2.027740000  3.723538000  9.723529000     0.000000000  0.268561782  0.000000000
     0.000000000  0.000000000 10.607709000    -0.216197209 -0.128441198  0.094271063

  length of vectors
    10.607708913 10.607708563 10.607709000     0.268561726  0.268561782  0.268561739


 FORCES acting on ions
    electron-ion (+dipol)            ewald-force                    non-local-force                 convergence-correction
 -----------------------------------------------------------------------------------------------
   -.940E+02 -.559E+02 -.451E+03   0.928E+02 0.551E+02 0.445E+03   0.127E+01 0.754E+00 0.608E+01   0.974E-03 0.579E-03 0.467E-02
   0.940E+02 0.559E+02 0.451E+03   -.928E+02 -.551E+02 -.445E+03   -.127E+01 -.754E+00 -.608E+01   -.974E-03 -.579E-03 -.467E-02
   0.112E-15 0.634E-14 0.315E-13   0.231E-13 -.178E-14 -.639E-13   -.331E-23 0.000E+00 -.265E-22   -.163E-12 -.103E-12 -.800E-12
   0.564E+02 0.335E+02 0.271E+03   -.570E+02 -.339E+02 -.273E+03   0.686E+00 0.408E+00 0.329E+01   0.171E-03 0.102E-03 0.821E-03
   -.564E+02 -.335E+02 -.271E+03   0.570E+02 0.339E+02 0.273E+03   -.686E+00 -.408E+00 -.329E+01   -.171E-03 -.102E-03 -.821E-03
 -----------------------------------------------------------------------------------------------
   0.150E-11 -.230E-11 0.194E-10   0.213E-13 0.000E+00 0.114E-12   -.111E-15 0.000E+00 0.888E-15   -.486E-12 -.367E-12 -.262E-11
 
 
 POSITION                                       TOTAL-FORCE (eV/Angst)
 -----------------------------------------------------------------------------------
      2.49723      1.48359     11.97487         0.050027      0.029721      0.239892
      3.77037      2.23995     18.07990        -0.050027     -0.029721     -0.239892
      0.00000      0.00000      0.00000        -0.000000      0.000000      0.000000
      1.35202      0.80322      6.48326         0.144853      0.086056      0.694605
      4.91559      2.92032     23.57150        -0.144853     -0.086056     -0.694605
 -----------------------------------------------------------------------------------
    total drift:                                0.000000     -0.000000      0.000000


--------------------------------------------------------------------------------------------------------



  FREE ENERGIE OF THE ION-ELECTRON SYSTEM (eV)
  ---------------------------------------------------
  free  energy   TOTEN  =       -19.93288994 eV

  energy  without entropy=      -19.93194066  energy(sigma->0) =      -19.93265262
 


--------------------------------------------------------------------------------------------------------


    POTLOK:  cpu time    0.0576: real time    0.0575


--------------------------------------------------------------------------------------------------------


 writing wavefunctions
     LOOP+:  cpu time  101.5633: real time  104.7668
    4ORBIT:  cpu time    0.0000: real time    0.0000

 total amount of memory used by VASP on root node    49632. kBytes
========================================================================

   base      :      30000. kBytes
   nonlr-proj:       1482. kBytes
   fftplans  :       3114. kBytes
   grid      :       5102. kBytes
   one-center:         15. kBytes
   wavefun   :       9919. kBytes
 
  
  
 General timing and accounting informations for this job:
 ========================================================
  
                  Total CPU time used (sec):      104.777
                            User time (sec):      104.056
                          System time (sec):        0.721
                         Elapsed time (sec):      108.948
  
                   Maximum memory used (kb):       68760.
                   Average memory used (kb):           0.
  
                          Minor page faults:        36283
                          Major page faults:            0
                 Voluntary context switches:         5562
