 vasp.5.4.1 24Jun15 (build Jun 17 2016 15:57:28) complex                        
  
 executed on           IFC91_ompi date 2016.11.24  11:09:07
 running on   16 total cores
 distrk:  each k-point on   16 cores,    1 groups
 distr:  one band on NCORES_PER_BAND=  16 cores,    1 groups


--------------------------------------------------------------------------------------------------------


 INCAR:
 POTCAR:    PAW_PBE Bi_pv 29Jan08 GW ready        
 POTCAR:   PAW_PBE Se 06Sep2000                   

 ----------------------------------------------------------------------------- 
|                                                                             |
|           W    W    AA    RRRRR   N    N  II  N    N   GGGG   !!!           |
|           W    W   A  A   R    R  NN   N  II  NN   N  G    G  !!!           |
|           W    W  A    A  R    R  N N  N  II  N N  N  G       !!!           |
|           W WW W  AAAAAA  RRRRR   N  N N  II  N  N N  G  GGG   !            |
|           WW  WW  A    A  R   R   N   NN  II  N   NN  G    G                |
|           W    W  A    A  R    R  N    N  II  N    N   GGGG   !!!           |
|                                                                             |
|      For optimal performance we recommend to set                            |
|        NCORE= 4 - approx SQRT( number of cores)                             |
|      NCORE specifies how many cores store one orbital (NPAR=cpu/NCORE).     |
|      This setting can  greatly improve the performance of VASP for DFT.     |
|      The default, NPAR=number of cores might be grossly inefficient         |
|      on modern multi-core architectures or massively parallel machines.     |
|      Do your own testing !!!!                                               |
|      Unfortunately you need to use the default for GW and RPA calculations. |
|      (for HF NCORE is supported but not extensively tested yet)             |
|                                                                             |
 ----------------------------------------------------------------------------- 

 POTCAR:    PAW_PBE Bi_pv 29Jan08 GW ready        
   VRHFIN =Bi:                                                                  
   LEXCH  = PE                                                                  
   EATOM  =  4638.5322 eV,  340.9225 Ry                                         
                                                                                
   TITEL  = PAW_PBE Bi_pv 29Jan08 GW ready                                      
   LULTRA =        F    use ultrasoft PP ?                                      
   IUNSCR =        1    unscreen: 0-lin 1-nonlin 2-no                           
   RPACOR =    2.200    partial core radius                                     
   POMASS =  208.980; ZVAL   =   21.000    mass and valenz                      
   RCORE  =    2.500    outmost cutoff radius                                   
   RWIGS  =    3.090; RWIGS  =    1.635    wigner-seitz radius (au A)           
   ENMAX  =  309.187; ENMIN  =  231.890 eV                                      
   ICORE  =        3    local potential                                         
   LCOR   =        T    correct aug charges                                     
   LPAW   =        T    paw PP                                                  
   EAUG   =  442.899                                                            
   DEXC   =    0.000                                                            
   RMAX   =    2.622    core radius for proj-oper                               
   RAUG   =    1.300    factor for augmentation sphere                          
   RDEP   =    2.650    radius for radial grids                                 
   QCUT   =   -4.767; QGAM   =    9.534    optimization parameters              
                                                                                
   Description                                                                  
     l     E      TYP  RCUT    TYP  RCUT                                        
     1   -95.81     23  1.900                                                   
     1    -4.57     23  1.900                                                   
     2   -27.08     23  2.200                                                   
     2   -28.44     23  2.200                                                   
     0   -14.47     23  2.500                                                   
     0     6.80     23  2.500                                                   
     3    -1.36      7  2.200                                                   
  local pseudopotential read in
  partial core-charges read in
  atomic valenz-charges read in
  non local Contribution for L=           1  read in
    real space projection operators read in
  non local Contribution for L=           1  read in
    real space projection operators read in
  non local Contribution for L=           2  read in
    real space projection operators read in
  non local Contribution for L=           2  read in
    real space projection operators read in
  non local Contribution for L=           0  read in
    real space projection operators read in
  non local Contribution for L=           0  read in
    real space projection operators read in
    PAW grid and wavefunctions read in
 
   number of l-projection  operators is LMAX  =           6
   number of lm-projection operators is LMMAX =          18
 
 POTCAR:   PAW_PBE Se 06Sep2000                   
   VRHFIN =Se: s2p4                                                             
   LEXCH  = PE                                                                  
   EATOM  =   256.9644 eV,   18.8864 Ry                                         
                                                                                
   TITEL  = PAW_PBE Se 06Sep2000                                                
   LULTRA =        F    use ultrasoft PP ?                                      
   IUNSCR =        1    unscreen: 0-lin 1-nonlin 2-no                           
   RPACOR =    1.900    partial core radius                                     
   POMASS =   78.960; ZVAL   =    6.000    mass and valenz                      
   RCORE  =    2.100    outmost cutoff radius                                   
   RWIGS  =    2.200; RWIGS  =    1.164    wigner-seitz radius (au A)           
   ENMAX  =  211.534; ENMIN  =  158.651 eV                                      
   ICORE  =        3    local potential                                         
   LCOR   =        T    correct aug charges                                     
   LPAW   =        T    paw PP                                                  
   EAUG   =  446.842                                                            
   DEXC   =    -.031                                                            
   RMAX   =    3.170    core radius for proj-oper                               
   RAUG   =    1.300    factor for augmentation sphere                          
   RDEP   =    2.177    radius for radial grids                                 
   QCUT   =   -3.943; QGAM   =    7.886    optimization parameters              
                                                                                
   Description                                                                  
     l     E      TYP  RCUT    TYP  RCUT                                        
     0   .000     23  2.100                                                     
     0   .000     23  2.100                                                     
     1   .000     23  2.100                                                     
     1   .000     23  2.100                                                     
     2   .000     23  2.100                                                     
     3  -.100      7  2.100                                                     
  local pseudopotential read in
  partial core-charges read in
  atomic valenz-charges read in
  non local Contribution for L=           0  read in
    real space projection operators read in
  non local Contribution for L=           0  read in
    real space projection operators read in
  non local Contribution for L=           1  read in
    real space projection operators read in
  non local Contribution for L=           1  read in
    real space projection operators read in
  non local Contribution for L=           2  read in
    real space projection operators read in
    PAW grid and wavefunctions read in
 
   number of l-projection  operators is LMAX  =           5
   number of lm-projection operators is LMMAX =          13
 

 ----------------------------------------------------------------------------- 
|                                                                             |
|  ADVICE TO THIS USER RUNNING 'VASP/VAMP'   (HEAR YOUR MASTER'S VOICE ...):  |
|                                                                             |
|      You have a (more or less) 'small supercell' and for smaller cells      |
|      it is recommended  to use the reciprocal-space projection scheme!      |
|      The real space optimization is not  efficient for small cells and it   |
|      is also less accurate ...                                              |
|      Therefore set LREAL=.FALSE. in the  INCAR file                         |
|                                                                             |
 ----------------------------------------------------------------------------- 

 Optimization of the real space projectors (new method)

 maximal supplied QI-value         = 15.12
 optimisation between [QCUT,QGAM] = [ 10.73, 21.47] = [ 32.26,129.05] Ry 
 Optimized for a Real-space Cutoff    1.44 Angstroem

   l    n(q)    QCUT    max X(q) W(low)/X(q) W(high)/X(q)  e(spline) 
   1      9    10.734     2.850    0.13E-03    0.22E-03    0.28E-06
   1      9    10.734     6.992    0.16E-03    0.36E-03    0.33E-06
   2      8    10.734    50.816    0.52E-04    0.12E-03    0.13E-06
   2      8    10.734    51.435    0.54E-04    0.12E-03    0.13E-06
   0      9    10.734    20.448    0.23E-03    0.26E-04    0.20E-06
   0      9    10.734     8.797    0.34E-03    0.39E-04    0.29E-06
 Optimization of the real space projectors (new method)

 maximal supplied QI-value         = 17.95
 optimisation between [QCUT,QGAM] = [ 10.59, 21.36] = [ 31.42,127.80] Ry 
 Optimized for a Real-space Cutoff    1.28 Angstroem

   l    n(q)    QCUT    max X(q) W(low)/X(q) W(high)/X(q)  e(spline) 
   0      8    10.592     6.499    0.15E-04    0.12E-04    0.11E-07
   0      8    10.592    52.623    0.14E-03    0.24E-03    0.47E-07
   1      8    10.592     4.229    0.15E-04    0.48E-04    0.38E-07
   1      8    10.592    29.991    0.48E-03    0.71E-04    0.83E-07
   2      7    10.592     3.719    0.14E-03    0.26E-03    0.49E-07
  PAW_PBE Bi_pv 29Jan08 GW ready        :
 energy of atom  1       EATOM=-4638.5322
 kinetic energy error for atom=    0.0832 (will be added to EATOM!!)
 PAW_PBE Se 06Sep2000                   :
 energy of atom  2       EATOM= -256.9644
 kinetic energy error for atom=    0.0012 (will be added to EATOM!!)
 
 
 POSCAR: i2a=[Bi,Se] ; Bi2Se3.su.static.7        
  positions in direct lattice
  No initial velocities read in
 exchange correlation table for  LEXCH =        8
   RHO(1)=    0.500       N(1)  =     2000
   RHO(2)=  100.500       N(2)  =     4000
 


--------------------------------------------------------------------------------------------------------


 ion  position               nearest neighbor table
   1  0.398  0.398  0.398-   5 3.03   5 3.03   5 3.03   3 3.26   3 3.26   3 3.26
   2  0.602  0.602  0.602-   4 3.03   4 3.03   4 3.03   3 3.26   3 3.26   3 3.26
   3  0.000  0.000  0.000-   2 3.26   1 3.26   2 3.26   1 3.26   2 3.26   1 3.26
   4  0.216  0.216  0.216-   2 3.03   2 3.03   2 3.03
   5  0.784  0.784  0.784-   1 3.03   1 3.03   1 3.03
 
  LATTYP: Found a trigonal (rhomboedric) cell.
 ALAT       =    10.7788010000
 COS(alpha) =     0.9166474577
  
  Lattice vectors:
  
 A1 = (   4.3082520000,   0.0000000000,   9.8803600000)
 A2 = (   2.0604450000,   3.7835950000,   9.8803600000)
 A3 = (   0.0000000000,   0.0000000000,  10.7788010000)


Analysis of symmetry for initial positions (statically):
=====================================================================
 Subroutine PRICEL returns:
 Original cell was already a primitive cell.
 

 Routine SETGRP: Setting up the symmetry group for a 
 trigonal (rhombohedral) supercell.


 Subroutine GETGRP returns: Found 12 space group operations
 (whereof 12 operations were pure point group operations)
 out of a pool of 12 trial point group operations.


The static configuration has the point symmetry D_3d.


Analysis of symmetry for dynamics (positions and initial velocities):
=====================================================================
 Subroutine PRICEL returns:
 Original cell was already a primitive cell.
 

 Routine SETGRP: Setting up the symmetry group for a 
 trigonal (rhombohedral) supercell.


 Subroutine GETGRP returns: Found 12 space group operations
 (whereof 12 operations were pure point group operations)
 out of a pool of 12 trial point group operations.


The dynamic configuration has the point symmetry D_3d.
 
 
 KPOINTS: Automatic Mesh                          

Automatic generation of k-mesh.
Space group operators:
 irot       det(A)        alpha          n_x          n_y          n_z        tau_x        tau_y        tau_z
    1     1.000000     0.000001     1.000000     0.000000     0.000000     0.000000     0.000000     0.000000
    2    -1.000000     0.000001     1.000000     0.000000     0.000000     0.000000     0.000000     0.000000
    3     1.000000   180.000000     0.468183     0.859726    -0.204148     0.000000     0.000000     0.000000
    4    -1.000000   180.000000     0.468183     0.859726    -0.204148     0.000000     0.000000     0.000000
    5     1.000000   120.000000    -0.202663    -0.120400    -0.971819     0.000000     0.000000     0.000000
    6    -1.000000   120.000000    -0.202663    -0.120400    -0.971819     0.000000     0.000000     0.000000
    7     1.000000   180.000000     0.510756    -0.859725     0.000000     0.000000     0.000000     0.000000
    8    -1.000000   180.000000     0.510756    -0.859725     0.000000     0.000000     0.000000     0.000000
    9     1.000000   120.000000     0.202663     0.120400     0.971819     0.000000     0.000000     0.000000
   10    -1.000000   120.000000     0.202663     0.120400     0.971819     0.000000     0.000000     0.000000
   11     1.000000   180.000000     0.978940     0.000000    -0.204148     0.000000     0.000000     0.000000
   12    -1.000000   180.000000     0.978940     0.000000    -0.204148     0.000000     0.000000     0.000000
 
 Subroutine IBZKPT returns following result:
 ===========================================
 
 Found     65 irreducible k-points:
 
 Following reciprocal coordinates:
            Coordinates               Weight
  0.000000  0.000000  0.000000      1.000000
  0.125000  0.000000  0.000000      6.000000
  0.250000  0.000000  0.000000      6.000000
  0.375000  0.000000  0.000000      6.000000
  0.500000  0.000000  0.000000      3.000000
  0.125000  0.125000  0.000000      6.000000
  0.250000  0.125000  0.000000     12.000000
  0.375000  0.125000  0.000000     12.000000
  0.500000  0.125000  0.000000     12.000000
 -0.375000  0.125000  0.000000     12.000000
 -0.250000  0.125000  0.000000     12.000000
 -0.125000  0.125000  0.000000      6.000000
  0.250000  0.250000  0.000000      6.000000
  0.375000  0.250000  0.000000     12.000000
  0.500000  0.250000  0.000000     12.000000
 -0.375000  0.250000  0.000000     12.000000
 -0.250000  0.250000  0.000000      6.000000
  0.375000  0.375000  0.000000      6.000000
  0.500000  0.375000  0.000000     12.000000
 -0.375000  0.375000  0.000000      6.000000
  0.500000  0.500000  0.000000      3.000000
  0.125000  0.125000  0.125000      2.000000
  0.250000  0.125000  0.125000      6.000000
  0.375000  0.125000  0.125000      6.000000
  0.500000  0.125000  0.125000      6.000000
 -0.375000  0.125000  0.125000      6.000000
 -0.250000  0.125000  0.125000      6.000000
 -0.125000  0.125000  0.125000      6.000000
  0.250000  0.250000  0.125000      6.000000
  0.375000  0.250000  0.125000     12.000000
  0.500000  0.250000  0.125000     12.000000
 -0.375000  0.250000  0.125000     12.000000
 -0.250000  0.250000  0.125000     12.000000
 -0.125000  0.250000  0.125000     12.000000
  0.375000  0.375000  0.125000      6.000000
  0.500000  0.375000  0.125000     12.000000
 -0.375000  0.375000  0.125000     12.000000
 -0.250000  0.375000  0.125000     12.000000
 -0.125000  0.375000  0.125000     12.000000
  0.500000  0.500000  0.125000      6.000000
 -0.375000  0.500000  0.125000     12.000000
 -0.250000  0.500000  0.125000     12.000000
 -0.125000  0.500000  0.125000      6.000000
 -0.375000 -0.375000  0.125000      6.000000
 -0.250000 -0.375000  0.125000     12.000000
 -0.250000 -0.250000  0.125000      6.000000
  0.250000  0.250000  0.250000      2.000000
  0.375000  0.250000  0.250000      6.000000
  0.500000  0.250000  0.250000      6.000000
 -0.375000  0.250000  0.250000      6.000000
 -0.250000  0.250000  0.250000      6.000000
  0.375000  0.375000  0.250000      6.000000
  0.500000  0.375000  0.250000     12.000000
 -0.375000  0.375000  0.250000     12.000000
 -0.250000  0.375000  0.250000     12.000000
  0.500000  0.500000  0.250000      6.000000
 -0.375000  0.500000  0.250000     12.000000
 -0.250000  0.500000  0.250000      6.000000
 -0.375000 -0.375000  0.250000      6.000000
  0.375000  0.375000  0.375000      2.000000
  0.500000  0.375000  0.375000      6.000000
 -0.375000  0.375000  0.375000      6.000000
  0.500000  0.500000  0.375000      6.000000
 -0.375000  0.500000  0.375000      6.000000
  0.500000  0.500000  0.500000      1.000000
 
 Following cartesian coordinates:
            Coordinates               Weight
  0.000000  0.000000  0.000000      1.000000
  0.029014 -0.015800  0.000000      6.000000
  0.058028 -0.031601  0.000000      6.000000
  0.087042 -0.047401  0.000000      6.000000
  0.116056 -0.063201  0.000000      3.000000
  0.029014  0.017237  0.000000      6.000000
  0.058028  0.001437  0.000000     12.000000
  0.087042 -0.014364  0.000000     12.000000
  0.116056 -0.030164  0.000000     12.000000
 -0.087042  0.080438  0.000000     12.000000
 -0.058028  0.064638  0.000000     12.000000
 -0.029014  0.048838  0.000000      6.000000
  0.058028  0.034474  0.000000      6.000000
  0.087042  0.018674  0.000000     12.000000
  0.116056  0.002874  0.000000     12.000000
 -0.087042  0.113476  0.000000     12.000000
 -0.058028  0.097675  0.000000      6.000000
  0.087042  0.051711  0.000000      6.000000
  0.116056  0.035911  0.000000     12.000000
 -0.087042  0.146513  0.000000      6.000000
  0.116056  0.068948  0.000000      3.000000
  0.002418  0.001437  0.011597      2.000000
  0.031432 -0.014364  0.011597      6.000000
  0.060447 -0.030164  0.011597      6.000000
  0.089461 -0.045964  0.011597      6.000000
 -0.113638  0.064638  0.011597      6.000000
 -0.084624  0.048838  0.011597      6.000000
 -0.055610  0.033037  0.011597      6.000000
  0.031432  0.018674  0.011597      6.000000
  0.060447  0.002874  0.011597     12.000000
  0.089461 -0.012927  0.011597     12.000000
 -0.113638  0.097675  0.011597     12.000000
 -0.084624  0.081875  0.011597     12.000000
 -0.055610  0.066075  0.011597     12.000000
  0.060447  0.035911  0.011597      6.000000
  0.089461  0.020111  0.011597     12.000000
 -0.113638  0.130713  0.011597     12.000000
 -0.084624  0.114912  0.011597     12.000000
 -0.055610  0.099112  0.011597     12.000000
  0.089461  0.053148  0.011597      6.000000
 -0.113638  0.163750  0.011597     12.000000
 -0.084624  0.147950  0.011597     12.000000
 -0.055610  0.132149  0.011597      6.000000
 -0.113638 -0.067512  0.011597      6.000000
 -0.084624 -0.083312  0.011597     12.000000
 -0.084624 -0.050274  0.011597      6.000000
  0.004837  0.002874  0.023194      2.000000
  0.033851 -0.012927  0.023194      6.000000
  0.062865 -0.028727  0.023194      6.000000
 -0.140234  0.081875  0.023194      6.000000
 -0.111220  0.066075  0.023194      6.000000
  0.033851  0.020111  0.023194      6.000000
  0.062865  0.004310  0.023194     12.000000
 -0.140234  0.114912  0.023194     12.000000
 -0.111220  0.099112  0.023194     12.000000
  0.062865  0.037348  0.023194      6.000000
 -0.140234  0.147950  0.023194     12.000000
 -0.111220  0.132149  0.023194      6.000000
 -0.140234 -0.083312  0.023194      6.000000
  0.007255  0.004310  0.034791      2.000000
  0.036269 -0.011490  0.034791      6.000000
 -0.166829  0.099112  0.034791      6.000000
  0.036269  0.021547  0.034791      6.000000
 -0.166829  0.132149  0.034791      6.000000
  0.009674  0.005747  0.046387      1.000000
 


--------------------------------------------------------------------------------------------------------




 Dimension of arrays:
   k-points           NKPTS =     65   k-points in BZ     NKDIM =     65   number of bands    NBANDS=     38
   number of dos      NEDOS =    301   number of ions     NIONS =      5
   non local maximal  LDIM  =      6   non local SUM 2l+1 LMDIM =     18
   total plane-waves  NPLWV = 175616
   max r-space proj   IRMAX =  12466   max aug-charges    IRDMAX=  44367
   dimension x,y,z NGX =    56 NGY =   56 NGZ =   56
   dimension x,y,z NGXF=   112 NGYF=  112 NGZF=  112
   support grid    NGXF=   112 NGYF=  112 NGZF=  112
   ions per type =               2   3
 NGX,Y,Z   is equivalent  to a cutoff of   8.64,  8.64,  8.64 a.u.
 NGXF,Y,Z  is equivalent  to a cutoff of  17.27, 17.27, 17.27 a.u.


 I would recommend the setting:
   dimension x,y,z NGX =    55 NGY =   55 NGZ =   55
 SYSTEM =  obtained from ('Bi2Se3', 'static', 1) b 
 POSCAR =  i2a=[Bi,Se] ; Bi2Se3.su.static.7        

 Startparameter for this run:
   NWRITE =      2    write-flag & timer
   PREC   = normal    normal or accurate (medium, high low for compatibility)
   ISTART =      0    job   : 0-new  1-cont  2-samecut
   ICHARG =      2    charge: 1-file 2-atom 10-const
   ISPIN  =      1    spin polarized calculation?
   LNONCOLLINEAR =      F non collinear calculations
   LSORBIT =      F    spin-orbit coupling
   INIWAV =      1    electr: 0-lowe 1-rand  2-diag
   LASPH  =      F    aspherical Exc in radial PAW
   METAGGA=      F    non-selfconsistent MetaGGA calc.

 Electronic Relaxation 1
   ENCUT  =  441.0 eV  32.41 Ry    5.69 a.u.  18.46 18.46 18.46*2*pi/ulx,y,z
   ENINI  =  441.0     initial cutoff
   ENAUG  =  776.2 eV  augmentation charge cutoff
   NELM   =     50;   NELMIN=  4; NELMDL= -5     # of ELM steps 
   EDIFF  = 0.6E-05   stopping-criterion for ELM
   LREAL  =      T    real-space projection
   NLSPLINE    = F    spline interpolate recip. space projectors
   LCOMPAT=      F    compatible to vasp.4.4
   GGA_COMPAT  = T    GGA compatible to vasp.4.4-vasp.4.6
   LMAXPAW     = -100 max onsite density
   LMAXMIX     =    2 max onsite mixed and CHGCAR
   VOSKOWN=      0    Vosko Wilk Nusair interpolation
   ROPT   =   -0.00050  -0.00050
 Ionic relaxation
   EDIFFG = 0.0E+00   stopping-criterion for IOM
   NSW    =      0    number of steps for IOM
   NBLOCK =      1;   KBLOCK =      1    inner block; outer block 
   IBRION =     -1    ionic relax: 0-MD 1-quasi-New 2-CG
   NFREE  =      0    steps in history (QN), initial steepest desc. (CG)
   ISIF   =      2    stress and relaxation
   IWAVPR =     10    prediction:  0-non 1-charg 2-wave 3-comb
   ISYM   =      2    0-nonsym 1-usesym 2-fastsym
   LCORR  =      T    Harris-Foulkes like correction to forces

   POTIM  = 0.5000    time-step for ionic-motion
   TEIN   =    0.0    initial temperature
   TEBEG  =    0.0;   TEEND  =   0.0 temperature during run
   SMASS  =  -3.00    Nose mass-parameter (am)
   estimated Nose-frequenzy (Omega)   =  0.10E-29 period in steps =****** mass=  -0.266E-26a.u.
   SCALEE = 1.0000    scale energy and forces
   NPACO  =    256;   APACO  = 16.0  distance and # of slots for P.C.
   PSTRESS=    0.0 pullay stress

  Mass of Ions in am
   POMASS = 208.98 78.96
  Ionic Valenz
   ZVAL   =  21.00  6.00
  Atomic Wigner-Seitz radii
   RWIGS  =  -1.00 -1.00
  virtual crystal weights 
   VCA    =   1.00  1.00
   NELECT =      60.0000    total number of electrons
   NUPDOWN=      -1.0000    fix difference up-down

 DOS related values:
   EMIN   =  10.00;   EMAX   =-10.00  energy-range for DOS
   EFERMI =   0.00
   ISMEAR =     2;   SIGMA  =   0.20  broadening in eV -4-tet -1-fermi 0-gaus

 Electronic relaxation 2 (details)
   IALGO  =     38    algorithm
   LDIAG  =      T    sub-space diagonalisation (order eigenvalues)
   LSUBROT=      F    optimize rotation matrix (better conditioning)
   TURBO    =      0    0=normal 1=particle mesh
   IRESTART =      0    0=no restart 2=restart with 2 vectors
   NREBOOT  =      0    no. of reboots
   NMIN     =      0    reboot dimension
   EREF     =   0.00    reference energy to select bands
   IMIX   =      4    mixing-type and parameters
     AMIX     =   0.40;   BMIX     =  1.00
     AMIX_MAG =   1.60;   BMIX_MAG =  1.00
     AMIN     =   0.10
     WC   =   100.;   INIMIX=   1;  MIXPRE=   1;  MAXMIX=  40

 Intra band minimization:
   WEIMIN = 0.0000     energy-eigenvalue tresh-hold
   EBREAK =  0.00E+00  absolut break condition
   DEPER  =   0.30     relativ break condition  

   TIME   =   0.40     timestep for ELM

  volume/ion in A,a.u.               =      35.14       237.14
  Fermi-wavevector in a.u.,A,eV,Ry     =   1.144282  2.162380 17.815224  1.309382
  Thomas-Fermi vector in A             =   2.280975
 
 Write flags
   LWAVE  =      T    write WAVECAR
   LCHARG =      T    write CHGCAR
   LVTOT  =      F    write LOCPOT, total local potential
   LVHAR  =      F    write LOCPOT, Hartree potential only
   LELF   =      F    write electronic localiz. function (ELF)
   LORBIT =      0    0 simple, 1 ext, 2 COOP (PROOUT)


 Dipole corrections
   LMONO  =      F    monopole corrections only (constant potential shift)
   LDIPOL =      F    correct potential (dipole corrections)
   IDIPOL =      0    1-x, 2-y, 3-z, 4-all directions 
   EPSILON=  1.0000000 bulk dielectric constant

 Exchange correlation treatment:
   GGA     =    --    GGA type
   LEXCH   =     8    internal setting for exchange type
   VOSKOWN=      0    Vosko Wilk Nusair interpolation
   LHFCALC =     F    Hartree Fock is set to
   LHFONE  =     F    Hartree Fock one center treatment
   AEXX    =    0.0000 exact exchange contribution

 Linear response parameters
   LEPSILON=     F    determine dielectric tensor
   LRPA    =     F    only Hartree local field effects (RPA)
   LNABLA  =     F    use nabla operator in PAW spheres
   LVEL    =     F    velocity operator in full k-point grid
   LINTERFAST=   F  fast interpolation
   KINTER  =     0    interpolate to denser k-point grid
   CSHIFT  =0.1000    complex shift for real part using Kramers Kronig
   OMEGAMAX=  -1.0    maximum frequency
   DEG_THRESHOLD= 0.2000000E-02 threshold for treating states as degnerate
   RTIME   =    0.100 relaxation time in fs

 Orbital magnetization related:
   ORBITALMAG=     F  switch on orbital magnetization
   LCHIMAG   =     F  perturbation theory with respect to B field
   DQ        =  0.001000  dq finite difference perturbation B field



--------------------------------------------------------------------------------------------------------


 Static calculation
 charge density and potential will be updated during run
 non-spin polarized calculation
 Variant of blocked Davidson
 Davidson routine will perform the subspace rotation
 perform sub-space diagonalisation
    after iterative eigenvector-optimisation
 modified Broyden-mixing scheme, WC =      100.0
 initial mixing is a Kerker type mixing with AMIX =  0.4000 and BMIX =      1.0000
 Hartree-type preconditioning will be used
 using additional bands            8
 real space projection scheme for non local part
 use partial core corrections
 calculate Harris-corrections to forces 
   (improved forces if not selfconsistent)
 use gradient corrections 
 use of overlap-Matrix (Vanderbilt PP)
 Methfessel and Paxton  Order N= 2 SIGMA  =   0.20


--------------------------------------------------------------------------------------------------------


  energy-cutoff  :      441.00
  volume of cell :      175.70
      direct lattice vectors                 reciprocal lattice vectors
     4.308252000  0.000000000  9.880360000     0.232112699 -0.126402390  0.000000000
     2.060445000  3.783595000  9.880360000     0.000000000  0.264298901  0.000000000
     0.000000000  0.000000000 10.778801000    -0.212765504 -0.126402479  0.092774697

  length of vectors
    10.778800909 10.778800418 10.778801000     0.264298826  0.264298901  0.264298867


 
 k-points in units of 2pi/SCALE and weight: Automatic Mesh                          
   0.00000000  0.00000000  0.00000000       0.002
   0.02901409 -0.01580030  0.00000000       0.012
   0.05802817 -0.03160060  0.00000000       0.012
   0.08704226 -0.04740090  0.00000000       0.012
   0.11605635 -0.06320119  0.00000000       0.006
   0.02901409  0.01723706  0.00000000       0.012
   0.05802817  0.00143677  0.00000000       0.023
   0.08704226 -0.01436353  0.00000000       0.023
   0.11605635 -0.03016383  0.00000000       0.023
  -0.08704226  0.08043826  0.00000000       0.023
  -0.05802817  0.06463796  0.00000000       0.023
  -0.02901409  0.04883766  0.00000000       0.012
   0.05802817  0.03447413  0.00000000       0.012
   0.08704226  0.01867383  0.00000000       0.023
   0.11605635  0.00287353  0.00000000       0.023
  -0.08704226  0.11347562  0.00000000       0.023
  -0.05802817  0.09767532  0.00000000       0.012
   0.08704226  0.05171119  0.00000000       0.012
   0.11605635  0.03591089  0.00000000       0.023
  -0.08704226  0.14651298  0.00000000       0.012
   0.11605635  0.06894826  0.00000000       0.006
   0.00241840  0.00143675  0.01159684       0.004
   0.03143249 -0.01436354  0.01159684       0.012
   0.06044657 -0.03016384  0.01159684       0.012
   0.08946066 -0.04596414  0.01159684       0.012
  -0.11363795  0.06463795  0.01159684       0.012
  -0.08462386  0.04883765  0.01159684       0.012
  -0.05560978  0.03303735  0.01159684       0.012
   0.03143249  0.01867382  0.01159684       0.012
   0.06044657  0.00287352  0.01159684       0.023
   0.08946066 -0.01292678  0.01159684       0.023
  -0.11363795  0.09767531  0.01159684       0.023
  -0.08462386  0.08187501  0.01159684       0.023
  -0.05560978  0.06607471  0.01159684       0.023
   0.06044657  0.03591088  0.01159684       0.012
   0.08946066  0.02011058  0.01159684       0.023
  -0.11363795  0.13071267  0.01159684       0.023
  -0.08462386  0.11491238  0.01159684       0.023
  -0.05560978  0.09911208  0.01159684       0.023
   0.08946066  0.05314795  0.01159684       0.012
  -0.11363795  0.16375004  0.01159684       0.023
  -0.08462386  0.14794974  0.01159684       0.023
  -0.05560978  0.13214944  0.01159684       0.012
  -0.11363795 -0.06751150  0.01159684       0.012
  -0.08462386 -0.08331180  0.01159684       0.023
  -0.08462386 -0.05027444  0.01159684       0.012
   0.00483680  0.00287351  0.02319367       0.004
   0.03385089 -0.01292679  0.02319367       0.012
   0.06286497 -0.02872709  0.02319367       0.012
  -0.14023364  0.08187500  0.02319367       0.012
  -0.11121955  0.06607470  0.02319367       0.012
   0.03385089  0.02011057  0.02319367       0.012
   0.06286497  0.00431027  0.02319367       0.023
  -0.14023364  0.11491236  0.02319367       0.023
  -0.11121955  0.09911207  0.02319367       0.023
   0.06286497  0.03734764  0.02319367       0.012
  -0.14023364  0.14794973  0.02319367       0.023
  -0.11121955  0.13214943  0.02319367       0.012
  -0.14023364 -0.08331181  0.02319367       0.012
   0.00725520  0.00431026  0.03479051       0.004
   0.03626929 -0.01149004  0.03479051       0.012
  -0.16682933  0.09911205  0.03479051       0.012
   0.03626929  0.02154733  0.03479051       0.012
  -0.16682933  0.13214942  0.03479051       0.012
   0.00967360  0.00574702  0.04638735       0.002
 
 k-points in reciprocal lattice and weights: Automatic Mesh                          
   0.00000000  0.00000000  0.00000000       0.002
   0.12500000  0.00000000  0.00000000       0.012
   0.25000000  0.00000000  0.00000000       0.012
   0.37500000  0.00000000  0.00000000       0.012
   0.50000000  0.00000000  0.00000000       0.006
   0.12500000  0.12500000  0.00000000       0.012
   0.25000000  0.12500000  0.00000000       0.023
   0.37500000  0.12500000  0.00000000       0.023
   0.50000000  0.12500000  0.00000000       0.023
  -0.37500000  0.12500000  0.00000000       0.023
  -0.25000000  0.12500000  0.00000000       0.023
  -0.12500000  0.12500000  0.00000000       0.012
   0.25000000  0.25000000  0.00000000       0.012
   0.37500000  0.25000000  0.00000000       0.023
   0.50000000  0.25000000  0.00000000       0.023
  -0.37500000  0.25000000  0.00000000       0.023
  -0.25000000  0.25000000  0.00000000       0.012
   0.37500000  0.37500000  0.00000000       0.012
   0.50000000  0.37500000  0.00000000       0.023
  -0.37500000  0.37500000  0.00000000       0.012
   0.50000000  0.50000000  0.00000000       0.006
   0.12500000  0.12500000  0.12500000       0.004
   0.25000000  0.12500000  0.12500000       0.012
   0.37500000  0.12500000  0.12500000       0.012
   0.50000000  0.12500000  0.12500000       0.012
  -0.37500000  0.12500000  0.12500000       0.012
  -0.25000000  0.12500000  0.12500000       0.012
  -0.12500000  0.12500000  0.12500000       0.012
   0.25000000  0.25000000  0.12500000       0.012
   0.37500000  0.25000000  0.12500000       0.023
   0.50000000  0.25000000  0.12500000       0.023
  -0.37500000  0.25000000  0.12500000       0.023
  -0.25000000  0.25000000  0.12500000       0.023
  -0.12500000  0.25000000  0.12500000       0.023
   0.37500000  0.37500000  0.12500000       0.012
   0.50000000  0.37500000  0.12500000       0.023
  -0.37500000  0.37500000  0.12500000       0.023
  -0.25000000  0.37500000  0.12500000       0.023
  -0.12500000  0.37500000  0.12500000       0.023
   0.50000000  0.50000000  0.12500000       0.012
  -0.37500000  0.50000000  0.12500000       0.023
  -0.25000000  0.50000000  0.12500000       0.023
  -0.12500000  0.50000000  0.12500000       0.012
  -0.37500000 -0.37500000  0.12500000       0.012
  -0.25000000 -0.37500000  0.12500000       0.023
  -0.25000000 -0.25000000  0.12500000       0.012
   0.25000000  0.25000000  0.25000000       0.004
   0.37500000  0.25000000  0.25000000       0.012
   0.50000000  0.25000000  0.25000000       0.012
  -0.37500000  0.25000000  0.25000000       0.012
  -0.25000000  0.25000000  0.25000000       0.012
   0.37500000  0.37500000  0.25000000       0.012
   0.50000000  0.37500000  0.25000000       0.023
  -0.37500000  0.37500000  0.25000000       0.023
  -0.25000000  0.37500000  0.25000000       0.023
   0.50000000  0.50000000  0.25000000       0.012
  -0.37500000  0.50000000  0.25000000       0.023
  -0.25000000  0.50000000  0.25000000       0.012
  -0.37500000 -0.37500000  0.25000000       0.012
   0.37500000  0.37500000  0.37500000       0.004
   0.50000000  0.37500000  0.37500000       0.012
  -0.37500000  0.37500000  0.37500000       0.012
   0.50000000  0.50000000  0.37500000       0.012
  -0.37500000  0.50000000  0.37500000       0.012
   0.50000000  0.50000000  0.50000000       0.002
 
 position of ions in fractional coordinates (direct lattice) 
   0.39843500  0.39843500  0.39843500
   0.60156500  0.60156500  0.60156500
   0.00000000  0.00000000  0.00000000
   0.21571500  0.21571500  0.21571500
   0.78428500  0.78428500  0.78428500
 
 position of ions in cartesian coordinates  (Angst):
   2.53751179  1.50751667 12.16801405
   3.83118521  2.27607833 18.37150695
   0.00000000  0.00000000  0.00000000
   1.37382347  0.81617820  6.58783277
   4.99487353  2.96741680 23.95168823
 


--------------------------------------------------------------------------------------------------------


 k-point  1 :   0.0000 0.0000 0.0000  plane waves:    3707
 k-point  2 :   0.1250 0.0000 0.0000  plane waves:    3714
 k-point  3 :   0.2500 0.0000 0.0000  plane waves:    3726
 k-point  4 :   0.3750 0.0000 0.0000  plane waves:    3685
 k-point  5 :   0.5000 0.0000 0.0000  plane waves:    3690
 k-point  6 :   0.1250 0.1250 0.0000  plane waves:    3714
 k-point  7 :   0.2500 0.1250 0.0000  plane waves:    3718
 k-point  8 :   0.3750 0.1250 0.0000  plane waves:    3703
 k-point  9 :   0.5000 0.1250 0.0000  plane waves:    3686
 k-point 10 :  -0.3750 0.1250 0.0000  plane waves:    3681
 k-point 11 :  -0.2500 0.1250 0.0000  plane waves:    3697
 k-point 12 :  -0.1250 0.1250 0.0000  plane waves:    3711
 k-point 13 :   0.2500 0.2500 0.0000  plane waves:    3703
 k-point 14 :   0.3750 0.2500 0.0000  plane waves:    3692
 k-point 15 :   0.5000 0.2500 0.0000  plane waves:    3690
 k-point 16 :  -0.3750 0.2500 0.0000  plane waves:    3684
 k-point 17 :  -0.2500 0.2500 0.0000  plane waves:    3674
 k-point 18 :   0.3750 0.3750 0.0000  plane waves:    3684
 k-point 19 :   0.5000 0.3750 0.0000  plane waves:    3683
 k-point 20 :  -0.3750 0.3750 0.0000  plane waves:    3676
 k-point 21 :   0.5000 0.5000 0.0000  plane waves:    3674
 k-point 22 :   0.1250 0.1250 0.1250  plane waves:    3687
 k-point 23 :   0.2500 0.1250 0.1250  plane waves:    3725
 k-point 24 :   0.3750 0.1250 0.1250  plane waves:    3719
 k-point 25 :   0.5000 0.1250 0.1250  plane waves:    3697
 k-point 26 :  -0.3750 0.1250 0.1250  plane waves:    3692
 k-point 27 :  -0.2500 0.1250 0.1250  plane waves:    3700
 k-point 28 :  -0.1250 0.1250 0.1250  plane waves:    3730
 k-point 29 :   0.2500 0.2500 0.1250  plane waves:    3719
 k-point 30 :   0.3750 0.2500 0.1250  plane waves:    3707
 k-point 31 :   0.5000 0.2500 0.1250  plane waves:    3702
 k-point 32 :  -0.3750 0.2500 0.1250  plane waves:    3694
 k-point 33 :  -0.2500 0.2500 0.1250  plane waves:    3687
 k-point 34 :  -0.1250 0.2500 0.1250  plane waves:    3696
 k-point 35 :   0.3750 0.3750 0.1250  plane waves:    3712
 k-point 36 :   0.5000 0.3750 0.1250  plane waves:    3695
 k-point 37 :  -0.3750 0.3750 0.1250  plane waves:    3679
 k-point 38 :  -0.2500 0.3750 0.1250  plane waves:    3683
 k-point 39 :  -0.1250 0.3750 0.1250  plane waves:    3681
 k-point 40 :   0.5000 0.5000 0.1250  plane waves:    3692
 k-point 41 :  -0.3750 0.5000 0.1250  plane waves:    3683
 k-point 42 :  -0.2500 0.5000 0.1250  plane waves:    3690
 k-point 43 :  -0.1250 0.5000 0.1250  plane waves:    3678
 k-point 44 :  -0.3750-0.3750 0.1250  plane waves:    3673
 k-point 45 :  -0.2500-0.3750 0.1250  plane waves:    3680
 k-point 46 :  -0.2500-0.2500 0.1250  plane waves:    3695
 k-point 47 :   0.2500 0.2500 0.2500  plane waves:    3690
 k-point 48 :   0.3750 0.2500 0.2500  plane waves:    3721
 k-point 49 :   0.5000 0.2500 0.2500  plane waves:    3710
 k-point 50 :  -0.3750 0.2500 0.2500  plane waves:    3715
 k-point 51 :  -0.2500 0.2500 0.2500  plane waves:    3674
 k-point 52 :   0.3750 0.3750 0.2500  plane waves:    3715
 k-point 53 :   0.5000 0.3750 0.2500  plane waves:    3708
 k-point 54 :  -0.3750 0.3750 0.2500  plane waves:    3693
 k-point 55 :  -0.2500 0.3750 0.2500  plane waves:    3685
 k-point 56 :   0.5000 0.5000 0.2500  plane waves:    3714
 k-point 57 :  -0.3750 0.5000 0.2500  plane waves:    3695
 k-point 58 :  -0.2500 0.5000 0.2500  plane waves:    3686
 k-point 59 :  -0.3750-0.3750 0.2500  plane waves:    3704
 k-point 60 :   0.3750 0.3750 0.3750  plane waves:    3699
 k-point 61 :   0.5000 0.3750 0.3750  plane waves:    3714
 k-point 62 :  -0.3750 0.3750 0.3750  plane waves:    3717
 k-point 63 :   0.5000 0.5000 0.3750  plane waves:    3710
 k-point 64 :  -0.3750 0.5000 0.3750  plane waves:    3708
 k-point 65 :   0.5000 0.5000 0.5000  plane waves:    3702

 maximum and minimum number of plane-waves per node :       249      208

 maximum number of plane-waves:      3730
 maximum index in each direction: 
   IXMAX=   18   IYMAX=   18   IZMAX=   18
   IXMIN=  -18   IYMIN=  -18   IZMIN=  -18

 WARNING: aliasing errors must be expected set NGX to  74 to avoid them
 WARNING: aliasing errors must be expected set NGY to  74 to avoid them
 WARNING: aliasing errors must be expected set NGZ to  74 to avoid them
 aliasing errors are usually negligible using standard VASP settings
 and one can safely disregard these warnings

 real space projection operators:
  total allocation   :       5953.29 KBytes
  max/ min on nodes  :        414.03        330.32


 parallel 3D FFT for wavefunctions:
    minimum data exchange during FFTs selected (reduces bandwidth)
 parallel 3D FFT for charge:
    minimum data exchange during FFTs selected (reduces bandwidth)


 total amount of memory used by VASP on root node    50463. kBytes
========================================================================

   base      :      30000. kBytes
   nonlr-proj:       1561. kBytes
   fftplans  :       3364. kBytes
   grid      :       5485. kBytes
   one-center:         15. kBytes
   wavefun   :      10038. kBytes
 
     INWAV:  cpu time    0.0000: real time    0.0001
 Broyden mixing: mesh for mixing (old mesh)
   NGX = 37   NGY = 37   NGZ = 37
  (NGX  =112   NGY  =112   NGZ  =112)
  gives a total of  50653 points

 initial charge density was supplied:
 charge density of overlapping atoms calculated
 number of electron      60.0000000 magnetization 
 keeping initial charge density in first step


--------------------------------------------------------------------------------------------------------


 Maximum index for non-local projection operator          783
 Maximum index for augmentation-charges         2726 (set IRDMAX)


--------------------------------------------------------------------------------------------------------


 First call to EWALD:  gamma=   0.316
 Maximum number of real-space cells 4x 4x 4
 Maximum number of reciprocal cells 5x 5x 5

 FEWALD executed in parallel
    FEWALD:  cpu time    0.0020: real time    0.0021


----------------------------------------- Iteration    1(   1)  ---------------------------------------


    POTLOK:  cpu time    0.0575: real time    0.0577
    SETDIJ:  cpu time    0.0064: real time    0.0064
     EDDAV:  cpu time    7.8909: real time    7.8871
       DOS:  cpu time    0.0070: real time    0.0070
    --------------------------------------------
      LOOP:  cpu time    7.9641: real time    8.0254

 eigenvalue-minimisations  :  6652
 total energy-change (2. order) : 0.4453722E+03  (-0.3825367E+04)
 number of electron      60.0000000 magnetization 
 augmentation part       60.0000000 magnetization 

 Free energy of the ion-electron system (eV)
  ---------------------------------------------------
  alpha Z        PSCENC =       173.21424237
  Ewald energy   TEWEN  =     -5041.08552487
  -Hartree energ DENC   =     -3775.61791471
  -exchange      EXHF   =         0.00000000
  -V(xc)+E(xc)   XCENC  =       226.50759202
  PAW double counting   =      7404.97912102    -7555.84706289
  entropy T*S    EENTRO =         0.00430043
  eigenvalues    EBANDS =     -1034.57020416
  atomic energy  EATOM  =     10047.78760332
  Solvation  Ediel_sol  =         0.00000000
  ---------------------------------------------------
  free energy    TOTEN  =       445.37215253 eV

  energy without entropy =      445.36785210  energy(sigma->0) =      445.37107742


--------------------------------------------------------------------------------------------------------




----------------------------------------- Iteration    1(   2)  ---------------------------------------


     EDDAV:  cpu time    7.7320: real time    7.7299
       DOS:  cpu time    0.0065: real time    0.0065
    --------------------------------------------
      LOOP:  cpu time    7.7405: real time    7.8128

 eigenvalue-minimisations  :  6560
 total energy-change (2. order) :-0.4366451E+03  (-0.4252402E+03)
 number of electron      60.0000000 magnetization 
 augmentation part       60.0000000 magnetization 

 Free energy of the ion-electron system (eV)
  ---------------------------------------------------
  alpha Z        PSCENC =       173.21424237
  Ewald energy   TEWEN  =     -5041.08552487
  -Hartree energ DENC   =     -3775.61791471
  -exchange      EXHF   =         0.00000000
  -V(xc)+E(xc)   XCENC  =       226.50759202
  PAW double counting   =      7404.97912102    -7555.84706289
  entropy T*S    EENTRO =         0.00120015
  eigenvalues    EBANDS =     -1471.21222487
  atomic energy  EATOM  =     10047.78760332
  Solvation  Ediel_sol  =         0.00000000
  ---------------------------------------------------
  free energy    TOTEN  =         8.72703154 eV

  energy without entropy =        8.72583139  energy(sigma->0) =        8.72673150


--------------------------------------------------------------------------------------------------------




----------------------------------------- Iteration    1(   3)  ---------------------------------------


     EDDAV:  cpu time    6.8782: real time    6.8756
       DOS:  cpu time    0.0051: real time    0.0051
    --------------------------------------------
      LOOP:  cpu time    6.8844: real time    6.9734

 eigenvalue-minimisations  :  5634
 total energy-change (2. order) :-0.2862400E+02  (-0.2817636E+02)
 number of electron      60.0000000 magnetization 
 augmentation part       60.0000000 magnetization 

 Free energy of the ion-electron system (eV)
  ---------------------------------------------------
  alpha Z        PSCENC =       173.21424237
  Ewald energy   TEWEN  =     -5041.08552487
  -Hartree energ DENC   =     -3775.61791471
  -exchange      EXHF   =         0.00000000
  -V(xc)+E(xc)   XCENC  =       226.50759202
  PAW double counting   =      7404.97912102    -7555.84706289
  entropy T*S    EENTRO =        -0.00000703
  eigenvalues    EBANDS =     -1499.83501868
  atomic energy  EATOM  =     10047.78760332
  Solvation  Ediel_sol  =         0.00000000
  ---------------------------------------------------
  free energy    TOTEN  =       -19.89696945 eV

  energy without entropy =      -19.89696242  energy(sigma->0) =      -19.89696770


--------------------------------------------------------------------------------------------------------




----------------------------------------- Iteration    1(   4)  ---------------------------------------


     EDDAV:  cpu time    7.5206: real time    7.5169
       DOS:  cpu time    0.0055: real time    0.0055
    --------------------------------------------
      LOOP:  cpu time    7.5267: real time    7.6648

 eigenvalue-minimisations  :  6322
 total energy-change (2. order) :-0.8769555E+00  (-0.8763862E+00)
 number of electron      60.0000000 magnetization 
 augmentation part       60.0000000 magnetization 

 Free energy of the ion-electron system (eV)
  ---------------------------------------------------
  alpha Z        PSCENC =       173.21424237
  Ewald energy   TEWEN  =     -5041.08552487
  -Hartree energ DENC   =     -3775.61791471
  -exchange      EXHF   =         0.00000000
  -V(xc)+E(xc)   XCENC  =       226.50759202
  PAW double counting   =      7404.97912102    -7555.84706289
  entropy T*S    EENTRO =        -0.00000692
  eigenvalues    EBANDS =     -1500.71197433
  atomic energy  EATOM  =     10047.78760332
  Solvation  Ediel_sol  =         0.00000000
  ---------------------------------------------------
  free energy    TOTEN  =       -20.77392499 eV

  energy without entropy =      -20.77391807  energy(sigma->0) =      -20.77392326


--------------------------------------------------------------------------------------------------------




----------------------------------------- Iteration    1(   5)  ---------------------------------------


     EDDAV:  cpu time    8.7468: real time    8.7425
       DOS:  cpu time    0.0063: real time    0.0063
    CHARGE:  cpu time    0.5497: real time    0.5494
    MIXING:  cpu time    0.0023: real time    0.0023
    --------------------------------------------
      LOOP:  cpu time    9.3056: real time    9.3693

 eigenvalue-minimisations  :  7616
 total energy-change (2. order) :-0.6903462E-01  (-0.6890077E-01)
 number of electron      59.9999973 magnetization 
 augmentation part       11.7757496 magnetization 

 Broyden mixing:
  rms(total) = 0.80599E+00    rms(broyden)= 0.80597E+00
  rms(prec ) = 0.10367E+01
  weight for this iteration     100.00

 Free energy of the ion-electron system (eV)
  ---------------------------------------------------
  alpha Z        PSCENC =       173.21424237
  Ewald energy   TEWEN  =     -5041.08552487
  -Hartree energ DENC   =     -3775.61791471
  -exchange      EXHF   =         0.00000000
  -V(xc)+E(xc)   XCENC  =       226.50759202
  PAW double counting   =      7404.97912102    -7555.84706289
  entropy T*S    EENTRO =        -0.00009196
  eigenvalues    EBANDS =     -1500.78092391
  atomic energy  EATOM  =     10047.78760332
  Solvation  Ediel_sol  =         0.00000000
  ---------------------------------------------------
  free energy    TOTEN  =       -20.84295962 eV

  energy without entropy =      -20.84286765  energy(sigma->0) =      -20.84293663


--------------------------------------------------------------------------------------------------------




----------------------------------------- Iteration    1(   6)  ---------------------------------------


    POTLOK:  cpu time    0.0555: real time    0.0554
    SETDIJ:  cpu time    0.0051: real time    0.0051
     EDDAV:  cpu time    6.6501: real time    6.6466
       DOS:  cpu time    0.0061: real time    0.0061
    CHARGE:  cpu time    0.5469: real time    0.5467
    MIXING:  cpu time    0.0022: real time    0.0022
    --------------------------------------------
      LOOP:  cpu time    7.2666: real time    7.3335

 eigenvalue-minimisations  :  5324
 total energy-change (2. order) : 0.1180191E+01  (-0.3480053E+00)
 number of electron      59.9999973 magnetization 
 augmentation part       11.9766373 magnetization 

 Broyden mixing:
  rms(total) = 0.56825E+00    rms(broyden)= 0.56825E+00
  rms(prec ) = 0.59067E+00
  weight for this iteration     100.00

 eigenvalues of (default mixing * dielectric matrix)
  average eigenvalue GAMMA=   1.5403
  1.5403

 Free energy of the ion-electron system (eV)
  ---------------------------------------------------
  alpha Z        PSCENC =       173.21424237
  Ewald energy   TEWEN  =     -5041.08552487
  -Hartree energ DENC   =     -3745.50518029
  -exchange      EXHF   =         0.00000000
  -V(xc)+E(xc)   XCENC  =       226.59328532
  PAW double counting   =      7272.75356881    -7421.52873917
  entropy T*S    EENTRO =        -0.00095605
  eigenvalues    EBANDS =     -1531.89106844
  atomic energy  EATOM  =     10047.78760332
  Solvation  Ediel_sol  =         0.00000000
  ---------------------------------------------------
  free energy    TOTEN  =       -19.66276899 eV

  energy without entropy =      -19.66181294  energy(sigma->0) =      -19.66252997


--------------------------------------------------------------------------------------------------------




----------------------------------------- Iteration    1(   7)  ---------------------------------------


    POTLOK:  cpu time    0.0553: real time    0.0553
    SETDIJ:  cpu time    0.0051: real time    0.0051
     EDDAV:  cpu time    6.6482: real time    6.6616
       DOS:  cpu time    0.0063: real time    0.0063
    CHARGE:  cpu time    0.5587: real time    0.5585
    MIXING:  cpu time    0.0024: real time    0.0024
    --------------------------------------------
      LOOP:  cpu time    7.2767: real time    7.3714

 eigenvalue-minimisations  :  5294
 total energy-change (2. order) :-0.5591002E-02  (-0.3432218E-01)
 number of electron      59.9999973 magnetization 
 augmentation part       11.9628038 magnetization 

 Broyden mixing:
  rms(total) = 0.33549E+00    rms(broyden)= 0.33549E+00
  rms(prec ) = 0.34317E+00
  weight for this iteration     100.00

 eigenvalues of (default mixing * dielectric matrix)
  average eigenvalue GAMMA=   1.7840
  0.9681  2.5998

 Free energy of the ion-electron system (eV)
  ---------------------------------------------------
  alpha Z        PSCENC =       173.21424237
  Ewald energy   TEWEN  =     -5041.08552487
  -Hartree energ DENC   =     -3744.67201813
  -exchange      EXHF   =         0.00000000
  -V(xc)+E(xc)   XCENC  =       226.62993005
  PAW double counting   =      7279.54026244    -7429.15586964
  entropy T*S    EENTRO =        -0.00047798
  eigenvalues    EBANDS =     -1531.92650755
  atomic energy  EATOM  =     10047.78760332
  Solvation  Ediel_sol  =         0.00000000
  ---------------------------------------------------
  free energy    TOTEN  =       -19.66835999 eV

  energy without entropy =      -19.66788200  energy(sigma->0) =      -19.66824049


--------------------------------------------------------------------------------------------------------




----------------------------------------- Iteration    1(   8)  ---------------------------------------


    POTLOK:  cpu time    0.0540: real time    0.0555
    SETDIJ:  cpu time    0.0052: real time    0.0052
     EDDAV:  cpu time    6.7163: real time    6.7131
       DOS:  cpu time    0.0063: real time    0.0063
    CHARGE:  cpu time    0.5511: real time    0.5509
    MIXING:  cpu time    0.0027: real time    0.0027
    --------------------------------------------
      LOOP:  cpu time    7.3388: real time    7.4209

 eigenvalue-minimisations  :  5390
 total energy-change (2. order) :-0.6286938E-02  (-0.6819542E-02)
 number of electron      59.9999973 magnetization 
 augmentation part       11.9531825 magnetization 

 Broyden mixing:
  rms(total) = 0.29133E-01    rms(broyden)= 0.29132E-01
  rms(prec ) = 0.32701E-01
  weight for this iteration     100.00

 eigenvalues of (default mixing * dielectric matrix)
  average eigenvalue GAMMA=   1.4707
  2.4453  1.0988  0.8680

 Free energy of the ion-electron system (eV)
  ---------------------------------------------------
  alpha Z        PSCENC =       173.21424237
  Ewald energy   TEWEN  =     -5041.08552487
  -Hartree energ DENC   =     -3741.56352619
  -exchange      EXHF   =         0.00000000
  -V(xc)+E(xc)   XCENC  =       226.72270774
  PAW double counting   =      7283.66215206    -7434.37381896
  entropy T*S    EENTRO =        -0.00118551
  eigenvalues    EBANDS =     -1534.03729690
  atomic energy  EATOM  =     10047.78760332
  Solvation  Ediel_sol  =         0.00000000
  ---------------------------------------------------
  free energy    TOTEN  =       -19.67464693 eV

  energy without entropy =      -19.67346142  energy(sigma->0) =      -19.67435055


--------------------------------------------------------------------------------------------------------




----------------------------------------- Iteration    1(   9)  ---------------------------------------


    POTLOK:  cpu time    0.0548: real time    0.0552
    SETDIJ:  cpu time    0.0052: real time    0.0052
     EDDAV:  cpu time    8.5214: real time    8.5175
       DOS:  cpu time    0.0060: real time    0.0060
    CHARGE:  cpu time    0.5578: real time    0.5573
    MIXING:  cpu time    0.0025: real time    0.0025
    --------------------------------------------
      LOOP:  cpu time    9.1478: real time    9.2321

 eigenvalue-minimisations  :  7306
 total energy-change (2. order) :-0.8444749E-03  (-0.6369323E-03)
 number of electron      59.9999973 magnetization 
 augmentation part       11.9456447 magnetization 

 Broyden mixing:
  rms(total) = 0.10442E-01    rms(broyden)= 0.10441E-01
  rms(prec ) = 0.12521E-01
  weight for this iteration     100.00

 eigenvalues of (default mixing * dielectric matrix)
  average eigenvalue GAMMA=   1.5570
  2.6409  0.8846  1.0808  1.6217

 Free energy of the ion-electron system (eV)
  ---------------------------------------------------
  alpha Z        PSCENC =       173.21424237
  Ewald energy   TEWEN  =     -5041.08552487
  -Hartree energ DENC   =     -3741.41135715
  -exchange      EXHF   =         0.00000000
  -V(xc)+E(xc)   XCENC  =       226.71952465
  PAW double counting   =      7290.38417640    -7441.19927170
  entropy T*S    EENTRO =        -0.00120642
  eigenvalues    EBANDS =     -1534.08367801
  atomic energy  EATOM  =     10047.78760332
  Solvation  Ediel_sol  =         0.00000000
  ---------------------------------------------------
  free energy    TOTEN  =       -19.67549140 eV

  energy without entropy =      -19.67428498  energy(sigma->0) =      -19.67518980


--------------------------------------------------------------------------------------------------------




----------------------------------------- Iteration    1(  10)  ---------------------------------------


    POTLOK:  cpu time    0.0533: real time    0.0548
    SETDIJ:  cpu time    0.0051: real time    0.0051
     EDDAV:  cpu time    7.1881: real time    7.1844
       DOS:  cpu time    0.0063: real time    0.0063
    CHARGE:  cpu time    0.5606: real time    0.5603
    MIXING:  cpu time    0.0027: real time    0.0026
    --------------------------------------------
      LOOP:  cpu time    7.8182: real time    7.8853

 eigenvalue-minimisations  :  5916
 total energy-change (2. order) :-0.3276000E-03  (-0.6862840E-04)
 number of electron      59.9999973 magnetization 
 augmentation part       11.9446690 magnetization 

 Broyden mixing:
  rms(total) = 0.49135E-02    rms(broyden)= 0.49135E-02
  rms(prec ) = 0.57525E-02
  weight for this iteration     100.00

 eigenvalues of (default mixing * dielectric matrix)
  average eigenvalue GAMMA=   1.5766
  2.6244  2.3248  0.9083  0.9083  1.1171

 Free energy of the ion-electron system (eV)
  ---------------------------------------------------
  alpha Z        PSCENC =       173.21424237
  Ewald energy   TEWEN  =     -5041.08552487
  -Hartree energ DENC   =     -3741.37578770
  -exchange      EXHF   =         0.00000000
  -V(xc)+E(xc)   XCENC  =       226.72407228
  PAW double counting   =      7294.95313682    -7445.82060520
  entropy T*S    EENTRO =        -0.00118167
  eigenvalues    EBANDS =     -1534.07177435
  atomic energy  EATOM  =     10047.78760332
  Solvation  Ediel_sol  =         0.00000000
  ---------------------------------------------------
  free energy    TOTEN  =       -19.67581900 eV

  energy without entropy =      -19.67463733  energy(sigma->0) =      -19.67552358


--------------------------------------------------------------------------------------------------------




----------------------------------------- Iteration    1(  11)  ---------------------------------------


    POTLOK:  cpu time    0.0558: real time    0.0558
    SETDIJ:  cpu time    0.0051: real time    0.0051
     EDDAV:  cpu time    7.1979: real time    7.1942
       DOS:  cpu time    0.0063: real time    0.0063
    CHARGE:  cpu time    0.5521: real time    0.5518
    MIXING:  cpu time    0.0028: real time    0.0028
    --------------------------------------------
      LOOP:  cpu time    7.8207: real time    7.9092

 eigenvalue-minimisations  :  6012
 total energy-change (2. order) :-0.4250710E-04  (-0.1602830E-04)
 number of electron      59.9999973 magnetization 
 augmentation part       11.9450404 magnetization 

 Broyden mixing:
  rms(total) = 0.99096E-03    rms(broyden)= 0.99092E-03
  rms(prec ) = 0.13874E-02
  weight for this iteration     100.00

 eigenvalues of (default mixing * dielectric matrix)
  average eigenvalue GAMMA=   1.5245
  2.6726  2.3093  0.8947  0.8947  1.1880  1.1880

 Free energy of the ion-electron system (eV)
  ---------------------------------------------------
  alpha Z        PSCENC =       173.21424237
  Ewald energy   TEWEN  =     -5041.08552487
  -Hartree energ DENC   =     -3741.33926534
  -exchange      EXHF   =         0.00000000
  -V(xc)+E(xc)   XCENC  =       226.72509311
  PAW double counting   =      7296.59224689    -7447.45502988
  entropy T*S    EENTRO =        -0.00119005
  eigenvalues    EBANDS =     -1534.11403706
  atomic energy  EATOM  =     10047.78760332
  Solvation  Ediel_sol  =         0.00000000
  ---------------------------------------------------
  free energy    TOTEN  =       -19.67586151 eV

  energy without entropy =      -19.67467146  energy(sigma->0) =      -19.67556400


--------------------------------------------------------------------------------------------------------




----------------------------------------- Iteration    1(  12)  ---------------------------------------


    POTLOK:  cpu time    0.0550: real time    0.0549
    SETDIJ:  cpu time    0.0051: real time    0.0051
     EDDAV:  cpu time    7.7186: real time    7.7158
       DOS:  cpu time    0.0051: real time    0.0060
    CHARGE:  cpu time    0.5501: real time    0.5497
    MIXING:  cpu time    0.0031: real time    0.0031
    --------------------------------------------
      LOOP:  cpu time    8.3387: real time    8.4337

 eigenvalue-minimisations  :  6508
 total energy-change (2. order) :-0.6104034E-05  (-0.3499426E-05)
 number of electron      59.9999973 magnetization 
 augmentation part       11.9444916 magnetization 

 Broyden mixing:
  rms(total) = 0.71386E-03    rms(broyden)= 0.71385E-03
  rms(prec ) = 0.82655E-03
  weight for this iteration     100.00

 eigenvalues of (default mixing * dielectric matrix)
  average eigenvalue GAMMA=   1.5768
  2.6923  2.6923  1.5547  0.9316  0.9316  1.1175  1.1175

 Free energy of the ion-electron system (eV)
  ---------------------------------------------------
  alpha Z        PSCENC =       173.21424237
  Ewald energy   TEWEN  =     -5041.08552487
  -Hartree energ DENC   =     -3741.42005290
  -exchange      EXHF   =         0.00000000
  -V(xc)+E(xc)   XCENC  =       226.72664420
  PAW double counting   =      7296.78847167    -7447.65906879
  entropy T*S    EENTRO =        -0.00119300
  eigenvalues    EBANDS =     -1534.02698961
  atomic energy  EATOM  =     10047.78760332
  Solvation  Ediel_sol  =         0.00000000
  ---------------------------------------------------
  free energy    TOTEN  =       -19.67586761 eV

  energy without entropy =      -19.67467461  energy(sigma->0) =      -19.67556936


--------------------------------------------------------------------------------------------------------




----------------------------------------- Iteration    1(  13)  ---------------------------------------


    POTLOK:  cpu time    0.0555: real time    0.0555
    SETDIJ:  cpu time    0.0051: real time    0.0051
     EDDAV:  cpu time    7.6034: real time    7.5998
       DOS:  cpu time    0.0063: real time    0.0063
    --------------------------------------------
      LOOP:  cpu time    7.6709: real time    7.7508

 eigenvalue-minimisations  :  6404
 total energy-change (2. order) :-0.9549003E-06  (-0.4595821E-06)
 number of electron      59.9999973 magnetization 
 augmentation part       11.9444916 magnetization 

 Free energy of the ion-electron system (eV)
  ---------------------------------------------------
  alpha Z        PSCENC =       173.21424237
  Ewald energy   TEWEN  =     -5041.08552487
  -Hartree energ DENC   =     -3741.43575106
  -exchange      EXHF   =         0.00000000
  -V(xc)+E(xc)   XCENC  =       226.72730665
  PAW double counting   =      7296.62805752    -7447.49306965
  entropy T*S    EENTRO =        -0.00119247
  eigenvalues    EBANDS =     -1534.01754038
  atomic energy  EATOM  =     10047.78760332
  Solvation  Ediel_sol  =         0.00000000
  ---------------------------------------------------
  free energy    TOTEN  =       -19.67586857 eV

  energy without entropy =      -19.67467610  energy(sigma->0) =      -19.67557045


--------------------------------------------------------------------------------------------------------




 average (electrostatic) potential at core
  the test charge radii are     1.0856  1.0808
  (the norm of the test charge is              1.0000)
       1-130.2777       2-130.2777       3 -54.7577       4 -54.9456       5 -54.9456
 
 
 
 E-fermi :   2.7202     XC(G=0):  -8.6008     alpha+bet : -8.2775


 k-point     1 :       0.0000    0.0000    0.0000
  band No.  band energies     occupation 
      1     -88.8311      2.00000
      2     -88.8309      2.00000
      3     -88.8294      2.00000
      4     -88.8294      2.00000
      5     -88.8293      2.00000
      6     -88.8292      2.00000
      7     -20.1126      2.00000
      8     -20.1115      2.00000
      9     -20.1115      2.00000
     10     -20.1114      2.00000
     11     -20.1111      2.00000
     12     -20.1111      2.00000
     13     -20.0991      2.00000
     14     -20.0991      2.00000
     15     -20.0988      2.00000
     16     -20.0988      2.00000
     17     -10.2100      2.00000
     18      -9.7576      2.00000
     19      -9.0037      2.00000
     20      -6.6380      2.00000
     21      -6.0527      2.00000
     22       1.1767      2.00000
     23       1.3278      2.00000
     24       1.5205      2.00000
     25       1.5205      2.00000
     26       1.5913      2.00000
     27       1.5913      2.00000
     28       2.0770      1.99979
     29       2.0770      1.99979
     30       2.6770      1.44066
     31       3.1522      0.00894
     32       4.3567      0.00000
     33       4.3567      0.00000
     34       4.8431      0.00000
     35       5.2690      0.00000
     36       5.2690      0.00000
     37       8.9833      0.00000
     38       9.1255      0.00000

 k-point     2 :       0.1250    0.0000    0.0000
  band No.  band energies     occupation 
      1     -88.8311      2.00000
      2     -88.8309      2.00000
      3     -88.8296      2.00000
      4     -88.8295      2.00000
      5     -88.8294      2.00000
      6     -88.8293      2.00000
      7     -20.1123      2.00000
      8     -20.1118      2.00000
      9     -20.1110      2.00000
     10     -20.1101      2.00000
     11     -20.1099      2.00000
     12     -20.1095      2.00000
     13     -20.1007      2.00000
     14     -20.0999      2.00000
     15     -20.0993      2.00000
     16     -20.0986      2.00000
     17     -10.1021      2.00000
     18      -9.6671      2.00000
     19      -8.9583      2.00000
     20      -6.7032      2.00000
     21      -6.1830      2.00000
     22       0.6012      2.00000
     23       0.8005      2.00000
     24       1.1831      2.00000
     25       1.1953      2.00000
     26       1.5690      2.00000
     27       1.8315      2.00000
     28       2.0400      1.99993
     29       2.1219      1.99938
     30       2.3121      1.99015
     31       3.8875      0.00000
     32       4.4841      0.00000
     33       4.6260      0.00000
     34       4.8315      0.00000
     35       5.3363      0.00000
     36       5.5078      0.00000
     37       8.8070      0.00000
     38       9.2916      0.00000

 k-point     3 :       0.2500    0.0000    0.0000
  band No.  band energies     occupation 
      1     -88.8311      2.00000
      2     -88.8310      2.00000
      3     -88.8297      2.00000
      4     -88.8296      2.00000
      5     -88.8295      2.00000
      6     -88.8292      2.00000
      7     -20.1136      2.00000
      8     -20.1131      2.00000
      9     -20.1084      2.00000
     10     -20.1069      2.00000
     11     -20.1067      2.00000
     12     -20.1059      2.00000
     13     -20.1041      2.00000
     14     -20.1023      2.00000
     15     -20.0995      2.00000
     16     -20.0981      2.00000
     17      -9.7935      2.00000
     18      -9.4217      2.00000
     19      -8.8477      2.00000
     20      -6.9170      2.00000
     21      -6.5338      2.00000
     22      -0.2642      2.00000
     23       0.2594      2.00000
     24       0.5586      2.00000
     25       0.7748      2.00000
     26       1.1750      2.00000
     27       1.5157      2.00000
     28       1.9745      1.99999
     29       2.0614      1.99986
     30       2.3820      2.00073
     31       4.0305      0.00000
     32       4.6624      0.00000
     33       4.8795      0.00000
     34       5.3171      0.00000
     35       5.6870      0.00000
     36       6.2807      0.00000
     37       8.0300      0.00000
     38       9.3770      0.00000

 k-point     4 :       0.3750    0.0000    0.0000
  band No.  band energies     occupation 
      1     -88.8310      2.00000
      2     -88.8307      2.00000
      3     -88.8295      2.00000
      4     -88.8293      2.00000
      5     -88.8289      2.00000
      6     -88.8288      2.00000
      7     -20.1150      2.00000
      8     -20.1142      2.00000
      9     -20.1075      2.00000
     10     -20.1067      2.00000
     11     -20.1044      2.00000
     12     -20.1035      2.00000
     13     -20.1030      2.00000
     14     -20.1030      2.00000
     15     -20.0975      2.00000
     16     -20.0966      2.00000
     17      -9.3428      2.00000
     18      -9.1232      2.00000
     19      -8.7614      2.00000
     20      -7.2528      2.00000
     21      -6.9571      2.00000
     22      -0.9778      2.00000
     23       0.0381      2.00000
     24       0.3330      2.00000
     25       0.4773      2.00000
     26       0.8450      2.00000
     27       0.9220      2.00000
     28       1.7321      2.00000
     29       2.0406      1.99992
     30       2.2900      1.99096
     31       3.8975      0.00000
     32       4.8648      0.00000
     33       5.1314      0.00000
     34       5.6606      0.00000
     35       6.1315      0.00000
     36       6.6483      0.00000
     37       7.6132      0.00000
     38       9.3540      0.00000

 k-point     5 :       0.5000    0.0000    0.0000
  band No.  band energies     occupation 
      1     -88.8311      2.00000
      2     -88.8310      2.00000
      3     -88.8295      2.00000
      4     -88.8292      2.00000
      5     -88.8288      2.00000
      6     -88.8287      2.00000
      7     -20.1156      2.00000
      8     -20.1148      2.00000
      9     -20.1090      2.00000
     10     -20.1073      2.00000
     11     -20.1042      2.00000
     12     -20.1025      2.00000
     13     -20.1023      2.00000
     14     -20.1020      2.00000
     15     -20.0962      2.00000
     16     -20.0955      2.00000
     17      -8.9822      2.00000
     18      -8.9388      2.00000
     19      -8.8737      2.00000
     20      -7.4322      2.00000
     21      -7.1856      2.00000
     22      -1.2376      2.00000
     23       0.1174      2.00000
     24       0.1649      2.00000
     25       0.3700      2.00000
     26       0.7253      2.00000
     27       0.7318      2.00000
     28       1.4792      2.00000
     29       2.0239      1.99995
     30       2.2940      1.99074
     31       3.8400      0.00000
     32       4.8353      0.00000
     33       5.4543      0.00000
     34       5.6826      0.00000
     35       6.3013      0.00000
     36       6.5976      0.00000
     37       7.4993      0.00000
     38       9.1137      0.00000

 k-point     6 :       0.1250    0.1250    0.0000
  band No.  band energies     occupation 
      1     -88.8311      2.00000
      2     -88.8308      2.00000
      3     -88.8297      2.00000
      4     -88.8295      2.00000
      5     -88.8294      2.00000
      6     -88.8292      2.00000
      7     -20.1122      2.00000
      8     -20.1119      2.00000
      9     -20.1110      2.00000
     10     -20.1101      2.00000
     11     -20.1100      2.00000
     12     -20.1096      2.00000
     13     -20.1007      2.00000
     14     -20.0999      2.00000
     15     -20.0994      2.00000
     16     -20.0984      2.00000
     17     -10.0998      2.00000
     18      -9.6727      2.00000
     19      -8.9536      2.00000
     20      -6.7075      2.00000
     21      -6.1802      2.00000
     22       0.6065      2.00000
     23       0.8432      2.00000
     24       1.1692      2.00000
     25       1.1812      2.00000
     26       1.5657      2.00000
     27       1.6496      2.00000
     28       2.0513      1.99990
     29       2.2760      1.99185
     30       2.3785      1.99944
     31       3.8032      0.00000
     32       4.3911      0.00000
     33       4.5748      0.00000
     34       4.9286      0.00000
     35       5.3915      0.00000
     36       5.5436      0.00000
     37       8.8670      0.00000
     38       9.2228      0.00000

 k-point     7 :       0.2500    0.1250    0.0000
  band No.  band energies     occupation 
      1     -88.8311      2.00000
      2     -88.8311      2.00000
      3     -88.8296      2.00000
      4     -88.8295      2.00000
      5     -88.8294      2.00000
      6     -88.8292      2.00000
      7     -20.1120      2.00000
      8     -20.1115      2.00000
      9     -20.1108      2.00000
     10     -20.1098      2.00000
     11     -20.1069      2.00000
     12     -20.1061      2.00000
     13     -20.1025      2.00000
     14     -20.1024      2.00000
     15     -20.0990      2.00000
     16     -20.0988      2.00000
     17      -9.8895      2.00000
     18      -9.5075      2.00000
     19      -8.8726      2.00000
     20      -6.8432      2.00000
     21      -6.4275      2.00000
     22       0.1034      2.00000
     23       0.2880      2.00000
     24       0.6094      2.00000
     25       0.9659      2.00000
     26       1.2073      2.00000
     27       1.3649      2.00000
     28       2.0916      1.99970
     29       2.3326      1.99060
     30       2.4301      2.02946
     31       4.1193      0.00000
     32       4.3293      0.00000
     33       4.7053      0.00000
     34       5.3859      0.00000
     35       5.7368      0.00000
     36       5.9800      0.00000
     37       8.6492      0.00000
     38       8.7043      0.00000

 k-point     8 :       0.3750    0.1250    0.0000
  band No.  band energies     occupation 
      1     -88.8312      2.00000
      2     -88.8309      2.00000
      3     -88.8295      2.00000
      4     -88.8294      2.00000
      5     -88.8291      2.00000
      6     -88.8290      2.00000
      7     -20.1126      2.00000
      8     -20.1120      2.00000
      9     -20.1082      2.00000
     10     -20.1070      2.00000
     11     -20.1056      2.00000
     12     -20.1048      2.00000
     13     -20.1040      2.00000
     14     -20.1031      2.00000
     15     -20.0986      2.00000
     16     -20.0979      2.00000
     17      -9.5051      2.00000
     18      -9.2274      2.00000
     19      -8.7653      2.00000
     20      -7.1140      2.00000
     21      -6.8409      2.00000
     22      -0.5635      2.00000
     23      -0.1567      2.00000
     24       0.2241      2.00000
     25       0.5136      2.00000
     26       0.7699      2.00000
     27       1.3470      2.00000
     28       1.9061      2.00000
     29       2.0486      1.99990
     30       2.2696      1.99230
     31       4.3546      0.00000
     32       4.6492      0.00000
     33       4.9275      0.00000
     34       5.5818      0.00000
     35       6.1077      0.00000
     36       6.5612      0.00000
     37       8.1372      0.00000
     38       9.1680      0.00000

 k-point     9 :       0.5000    0.1250    0.0000
  band No.  band energies     occupation 
      1     -88.8310      2.00000
      2     -88.8310      2.00000
      3     -88.8294      2.00000
      4     -88.8292      2.00000
      5     -88.8288      2.00000
      6     -88.8287      2.00000
      7     -20.1135      2.00000
      8     -20.1126      2.00000
      9     -20.1081      2.00000
     10     -20.1070      2.00000
     11     -20.1048      2.00000
     12     -20.1036      2.00000
     13     -20.1029      2.00000
     14     -20.1024      2.00000
     15     -20.0976      2.00000
     16     -20.0967      2.00000
     17      -9.0512      2.00000
     18      -8.9774      2.00000
     19      -8.7613      2.00000
     20      -7.4048      2.00000
     21      -7.2074      2.00000
     22      -1.0754      2.00000
     23      -0.1884      2.00000
     24       0.0223      2.00000
     25       0.1469      2.00000
     26       0.8679      2.00000
     27       1.1033      2.00000
     28       1.5906      2.00000
     29       1.7508      2.00000
     30       2.1139      1.99949
     31       4.4599      0.00000
     32       4.9388      0.00000
     33       5.2564      0.00000
     34       5.8621      0.00000
     35       6.0025      0.00000
     36       6.6868      0.00000
     37       7.9418      0.00000
     38       9.1119      0.00000

 k-point    10 :      -0.3750    0.1250    0.0000
  band No.  band energies     occupation 
      1     -88.8311      2.00000
      2     -88.8309      2.00000
      3     -88.8293      2.00000
      4     -88.8292      2.00000
      5     -88.8288      2.00000
      6     -88.8287      2.00000
      7     -20.1135      2.00000
      8     -20.1126      2.00000
      9     -20.1081      2.00000
     10     -20.1069      2.00000
     11     -20.1048      2.00000
     12     -20.1036      2.00000
     13     -20.1029      2.00000
     14     -20.1024      2.00000
     15     -20.0976      2.00000
     16     -20.0967      2.00000
     17      -9.0673      2.00000
     18      -8.9543      2.00000
     19      -8.7674      2.00000
     20      -7.4123      2.00000
     21      -7.2006      2.00000
     22      -1.1044      2.00000
     23      -0.1610      2.00000
     24       0.0400      2.00000
     25       0.2432      2.00000
     26       0.7416      2.00000
     27       1.1259      2.00000
     28       1.4757      2.00000
     29       1.8273      2.00000
     30       2.1281      1.99928
     31       4.4555      0.00000
     32       4.8803      0.00000
     33       5.4208      0.00000
     34       5.8111      0.00000
     35       6.0827      0.00000
     36       6.5639      0.00000
     37       7.8763      0.00000
     38       9.2809      0.00000

 k-point    11 :      -0.2500    0.1250    0.0000
  band No.  band energies     occupation 
      1     -88.8310      2.00000
      2     -88.8309      2.00000
      3     -88.8294      2.00000
      4     -88.8293      2.00000
      5     -88.8291      2.00000
      6     -88.8290      2.00000
      7     -20.1126      2.00000
      8     -20.1120      2.00000
      9     -20.1082      2.00000
     10     -20.1069      2.00000
     11     -20.1057      2.00000
     12     -20.1048      2.00000
     13     -20.1039      2.00000
     14     -20.1031      2.00000
     15     -20.0985      2.00000
     16     -20.0979      2.00000
     17      -9.5174      2.00000
     18      -9.1988      2.00000
     19      -8.7851      2.00000
     20      -7.1008      2.00000
     21      -6.8506      2.00000
     22      -0.6277      2.00000
     23      -0.0837      2.00000
     24       0.3593      2.00000
     25       0.5535      2.00000
     26       0.6222      2.00000
     27       1.2335      2.00000
     28       1.8764      2.00000
     29       2.1669      1.99837
     30       2.2587      1.99312
     31       4.3711      0.00000
     32       4.5349      0.00000
     33       5.0000      0.00000
     34       5.6483      0.00000
     35       6.1666      0.00000
     36       6.4745      0.00000
     37       8.0632      0.00000
     38       9.1454      0.00000

 k-point    12 :      -0.1250    0.1250    0.0000
  band No.  band energies     occupation 
      1     -88.8310      2.00000
      2     -88.8308      2.00000
      3     -88.8296      2.00000
      4     -88.8295      2.00000
      5     -88.8293      2.00000
[...]
     28       1.8447      2.00000
     29       2.1147      1.99948
     30       2.2116      1.99637
     31       4.5277      0.00000
     32       4.8421      0.00000
     33       4.9800      0.00000
     34       5.7949      0.00000
     35       6.4818      0.00000
     36       6.6915      0.00000
     37       8.9380      0.00000
     38       8.9821      0.00000

 k-point    59 :      -0.3750   -0.3750    0.2500
  band No.  band energies     occupation 
      1     -88.8311      2.00000
      2     -88.8309      2.00000
      3     -88.8295      2.00000
      4     -88.8294      2.00000
      5     -88.8291      2.00000
      6     -88.8290      2.00000
      7     -20.1150      2.00000
      8     -20.1143      2.00000
      9     -20.1077      2.00000
     10     -20.1068      2.00000
     11     -20.1044      2.00000
     12     -20.1034      2.00000
     13     -20.1032      2.00000
     14     -20.1032      2.00000
     15     -20.0977      2.00000
     16     -20.0967      2.00000
     17      -9.3099      2.00000
     18      -9.1735      2.00000
     19      -8.7465      2.00000
     20      -7.2244      2.00000
     21      -6.9836      2.00000
     22      -0.8735      2.00000
     23      -0.2265      2.00000
     24       0.3185      2.00000
     25       0.4304      2.00000
     26       0.9390      2.00000
     27       1.0857      2.00000
     28       1.9166      2.00000
     29       1.9667      1.99999
     30       2.1617      1.99853
     31       3.9988      0.00000
     32       4.8678      0.00000
     33       4.9433      0.00000
     34       5.6102      0.00000
     35       6.0826      0.00000
     36       6.8391      0.00000
     37       7.6531      0.00000
     38       9.2241      0.00000

 k-point    60 :       0.3750    0.3750    0.3750
  band No.  band energies     occupation 
      1     -88.8310      2.00000
      2     -88.8310      2.00000
      3     -88.8293      2.00000
      4     -88.8293      2.00000
      5     -88.8292      2.00000
      6     -88.8292      2.00000
      7     -20.1123      2.00000
      8     -20.1114      2.00000
      9     -20.1113      2.00000
     10     -20.1113      2.00000
     11     -20.1111      2.00000
     12     -20.1111      2.00000
     13     -20.0992      2.00000
     14     -20.0991      2.00000
     15     -20.0989      2.00000
     16     -20.0989      2.00000
     17     -10.1568      2.00000
     18      -9.8693      2.00000
     19      -8.9125      2.00000
     20      -6.7615      2.00000
     21      -5.9566      2.00000
     22       1.0037      2.00000
     23       1.4734      2.00000
     24       1.4734      2.00000
     25       1.5770      2.00000
     26       1.6805      2.00000
     27       1.6805      2.00000
     28       2.0189      1.99996
     29       2.0189      1.99996
     30       2.4263      2.02645
     31       3.4096      0.00006
     32       4.4638      0.00000
     33       4.4638      0.00000
     34       4.7186      0.00000
     35       5.1556      0.00000
     36       5.1556      0.00000
     37       9.0381      0.00000
     38       9.4254      0.00000

 k-point    61 :       0.5000    0.3750    0.3750
  band No.  band energies     occupation 
      1     -88.8309      2.00000
      2     -88.8309      2.00000
      3     -88.8296      2.00000
      4     -88.8295      2.00000
      5     -88.8295      2.00000
      6     -88.8294      2.00000
      7     -20.1124      2.00000
      8     -20.1118      2.00000
      9     -20.1110      2.00000
     10     -20.1100      2.00000
     11     -20.1099      2.00000
     12     -20.1096      2.00000
     13     -20.1006      2.00000
     14     -20.0997      2.00000
     15     -20.0995      2.00000
     16     -20.0987      2.00000
     17     -10.0439      2.00000
     18      -9.7859      2.00000
     19      -8.8665      2.00000
     20      -6.8143      2.00000
     21      -6.1007      2.00000
     22       0.5248      2.00000
     23       0.9697      2.00000
     24       1.2256      2.00000
     25       1.2476      2.00000
     26       1.4392      2.00000
     27       1.5137      2.00000
     28       2.1212      1.99939
     29       2.2190      1.99592
     30       2.4866      2.08131
     31       3.7836      0.00000
     32       4.2913      0.00000
     33       4.5862      0.00000
     34       5.0357      0.00000
     35       5.3537      0.00000
     36       5.5534      0.00000
     37       8.9019      0.00000
     38       9.4035      0.00000

 k-point    62 :      -0.3750    0.3750    0.3750
  band No.  band energies     occupation 
      1     -88.8310      2.00000
      2     -88.8308      2.00000
      3     -88.8297      2.00000
      4     -88.8296      2.00000
      5     -88.8294      2.00000
      6     -88.8293      2.00000
      7     -20.1137      2.00000
      8     -20.1131      2.00000
      9     -20.1082      2.00000
     10     -20.1067      2.00000
     11     -20.1066      2.00000
     12     -20.1058      2.00000
     13     -20.1041      2.00000
     14     -20.1023      2.00000
     15     -20.0994      2.00000
     16     -20.0982      2.00000
     17      -9.7373      2.00000
     18      -9.5299      2.00000
     19      -8.7780      2.00000
     20      -6.9663      2.00000
     21      -6.5034      2.00000
     22      -0.3470      2.00000
     23       0.3292      2.00000
     24       0.7587      2.00000
     25       0.7890      2.00000
     26       1.1404      2.00000
     27       1.3188      2.00000
     28       1.8684      2.00000
     29       2.1002      1.99963
     30       2.4980      2.09053
     31       3.8212      0.00000
     32       4.7543      0.00000
     33       4.9990      0.00000
     34       5.4394      0.00000
     35       5.8218      0.00000
     36       6.0170      0.00000
     37       8.1996      0.00000
     38       9.4121      0.00000

 k-point    63 :       0.5000    0.5000    0.3750
  band No.  band energies     occupation 
      1     -88.8309      2.00000
      2     -88.8308      2.00000
      3     -88.8296      2.00000
      4     -88.8295      2.00000
      5     -88.8294      2.00000
      6     -88.8293      2.00000
      7     -20.1124      2.00000
      8     -20.1118      2.00000
      9     -20.1109      2.00000
     10     -20.1100      2.00000
     11     -20.1099      2.00000
     12     -20.1096      2.00000
     13     -20.1006      2.00000
     14     -20.0997      2.00000
     15     -20.0994      2.00000
     16     -20.0987      2.00000
     17     -10.0398      2.00000
     18      -9.7926      2.00000
     19      -8.8626      2.00000
     20      -6.8178      2.00000
     21      -6.0988      2.00000
     22       0.5319      2.00000
     23       1.0517      2.00000
     24       1.2202      2.00000
     25       1.2446      2.00000
     26       1.3414      2.00000
     27       1.4387      2.00000
     28       2.1309      1.99924
     29       2.2871      1.99113
     30       2.5794      2.04399
     31       3.6836      0.00000
     32       4.2500      0.00000
     33       4.5381      0.00000
     34       5.0847      0.00000
     35       5.4056      0.00000
     36       5.5894      0.00000
     37       8.9696      0.00000
     38       9.2919      0.00000

 k-point    64 :      -0.3750    0.5000    0.3750
  band No.  band energies     occupation 
      1     -88.8308      2.00000
      2     -88.8308      2.00000
      3     -88.8295      2.00000
      4     -88.8295      2.00000
      5     -88.8294      2.00000
      6     -88.8293      2.00000
      7     -20.1117      2.00000
      8     -20.1116      2.00000
      9     -20.1107      2.00000
     10     -20.1097      2.00000
     11     -20.1070      2.00000
     12     -20.1060      2.00000
     13     -20.1024      2.00000
     14     -20.1024      2.00000
     15     -20.0990      2.00000
     16     -20.0988      2.00000
     17      -9.8340      2.00000
     18      -9.6145      2.00000
     19      -8.7996      2.00000
     20      -6.9127      2.00000
     21      -6.3795      2.00000
     22      -0.0380      2.00000
     23       0.2695      2.00000
     24       0.8311      2.00000
     25       1.0649      2.00000
     26       1.3019      2.00000
     27       1.6218      2.00000
     28       1.6467      2.00000
     29       2.1404      1.99906
     30       2.3108      1.99017
     31       4.3177      0.00000
     32       4.6003      0.00000
     33       4.7760      0.00000
     34       5.2971      0.00000
     35       5.6927      0.00000
     36       5.7962      0.00000
     37       8.7977      0.00000
     38       8.9993      0.00000

 k-point    65 :       0.5000    0.5000    0.5000
  band No.  band energies     occupation 
      1     -88.8311      2.00000
      2     -88.8309      2.00000
      3     -88.8293      2.00000
      4     -88.8293      2.00000
      5     -88.8293      2.00000
      6     -88.8293      2.00000
      7     -20.1122      2.00000
      8     -20.1113      2.00000
      9     -20.1113      2.00000
     10     -20.1113      2.00000
     11     -20.1111      2.00000
     12     -20.1111      2.00000
     13     -20.0992      2.00000
     14     -20.0992      2.00000
     15     -20.0990      2.00000
     16     -20.0990      2.00000
     17     -10.1441      2.00000
     18      -9.8908      2.00000
     19      -8.8978      2.00000
     20      -6.7804      2.00000
     21      -5.9428      2.00000
     22       0.9864      2.00000
     23       1.4686      2.00000
     24       1.4686      2.00000
     25       1.6115      2.00000
     26       1.6944      2.00000
     27       1.6944      2.00000
     28       2.0071      1.99997
     29       2.0071      1.99997
     30       2.3885      2.00339
     31       3.4469      0.00002
     32       4.4856      0.00000
     33       4.4856      0.00000
     34       4.6950      0.00000
     35       5.1328      0.00000
     36       5.1328      0.00000
     37       9.0320      0.00000
     38       9.6862      0.00000


--------------------------------------------------------------------------------------------------------


 soft charge-density along one line, spin component           1
         0         1         2         3         4         5         6         7         8         9
 total charge-density along one line
 
 pseudopotential strength for first ion, spin component:           1
-65.623  -0.000  -0.000  12.318   0.000   0.000  -0.007  -0.034
 -0.000 -65.625  -0.000   0.000  12.318   0.000  -0.002  -0.006
 -0.000  -0.000 -65.623   0.000   0.000  12.318   0.002  -0.002
 12.318   0.000   0.000   4.093  -0.000  -0.000   0.001   0.006
  0.000  12.318   0.000  -0.000   4.093  -0.000   0.000   0.001
  0.000   0.000  12.318  -0.000  -0.000   4.093   0.000   0.000
 -0.007  -0.002   0.002   0.001   0.000   0.000 -18.048   0.000
 -0.034  -0.006  -0.002   0.006   0.001   0.000   0.000 -18.046
  0.001  -0.049   0.002  -0.000   0.008  -0.001  -0.002  -0.001
 -0.002  -0.010  -0.036   0.000   0.002   0.006   0.004  -0.002
  0.011  -0.001  -0.007  -0.001   0.000   0.001   0.002   0.004
 -0.007  -0.002   0.002   0.001   0.000   0.000 -17.514   0.000
 -0.032  -0.006  -0.002   0.006   0.001   0.000   0.000 -17.513
  0.001  -0.047   0.002  -0.000   0.008  -0.001  -0.002  -0.001
 -0.002  -0.010  -0.034   0.000   0.001   0.006   0.004  -0.002
  0.010  -0.001  -0.007  -0.001   0.000   0.001   0.002   0.003
  0.003   0.025   0.005   0.001   0.004   0.001   0.000   0.000
 -0.004  -0.036  -0.007  -0.001  -0.006  -0.001  -0.000  -0.000
 total augmentation occupancy for first ion, spin component:           1
  2.000  -0.000  -0.000   0.003   0.000   0.000   0.002   0.009  -0.001  -0.000   0.000  -0.002  -0.009   0.001   0.000  -0.001
 -0.000   2.000  -0.000   0.000   0.003   0.000  -0.000   0.001   0.008   0.001  -0.000   0.000  -0.001  -0.008  -0.001   0.000
 -0.000  -0.000   2.000   0.000   0.000   0.003   0.003  -0.000  -0.001   0.008   0.002  -0.003   0.000   0.001  -0.008  -0.002
  0.003   0.000   0.000   0.728  -0.000  -0.000  -0.072  -0.344   0.067   0.075  -0.229   0.071   0.341  -0.066  -0.074   0.225
  0.000   0.003   0.000  -0.000   0.726  -0.000   0.075   0.042   0.039   0.071   0.041  -0.074  -0.041  -0.035  -0.070  -0.040
  0.000   0.000   0.003  -0.000  -0.000   0.728  -0.303   0.075   0.112  -0.262  -0.052   0.298  -0.074  -0.111   0.260   0.052
  0.002  -0.000   0.003  -0.072   0.075  -0.303   3.940   0.140  -0.490   1.056   0.451  -1.878  -0.138   0.486  -1.047  -0.447
  0.009   0.001  -0.000  -0.344   0.042   0.075   0.140   4.580  -0.222  -0.567   0.935  -0.138  -2.509   0.220   0.562  -0.927
 -0.001   0.008  -0.001   0.067   0.039   0.112  -0.490  -0.222   2.973  -0.374  -0.267   0.486   0.220  -0.916   0.371   0.264
 -0.000   0.001   0.008   0.075   0.071  -0.262   1.056  -0.567  -0.374   3.962   0.065  -1.047   0.562   0.371  -1.897  -0.064
  0.000  -0.000   0.002  -0.229   0.041  -0.052   0.451   0.935  -0.267   0.065   3.357  -0.447  -0.927   0.264  -0.064  -1.300
 -0.002   0.000  -0.003   0.071  -0.074   0.298  -1.878  -0.138   0.486  -1.047  -0.447   1.812   0.136  -0.481   1.037   0.443
 -0.009  -0.001   0.000   0.341  -0.041  -0.074  -0.138  -2.509   0.220   0.562  -0.927   0.136   2.435  -0.218  -0.557   0.919
  0.001  -0.008   0.001  -0.066  -0.035  -0.111   0.486   0.220  -0.916   0.371   0.264  -0.481  -0.218   0.857  -0.367  -0.262
  0.000  -0.001  -0.008  -0.074  -0.070   0.260  -1.047   0.562   0.371  -1.897  -0.064   1.037  -0.557  -0.367   1.828   0.063
 -0.001   0.000  -0.002   0.225  -0.040   0.052  -0.447  -0.927   0.264  -0.064  -1.300   0.443   0.919  -0.262   0.063   1.240
  0.000   0.000   0.000  -0.006  -0.049  -0.010   0.001   0.003   0.015   0.005   0.000  -0.001  -0.003  -0.015  -0.005  -0.000
 -0.000  -0.000  -0.000   0.003   0.024   0.005   0.000   0.000   0.002   0.001   0.000  -0.000  -0.000  -0.002  -0.001  -0.000


------------------------ aborting loop because EDIFF is reached ----------------------------------------


    CHARGE:  cpu time    0.5495: real time    0.5492
    FORLOC:  cpu time    0.0038: real time    0.0047
    FORNL :  cpu time    1.7741: real time    1.7731
    STRESS:  cpu time    5.3332: real time    5.3303
    FORCOR:  cpu time    0.0597: real time    0.0597
    FORHAR:  cpu time    0.0159: real time    0.0159
    MIXING:  cpu time    0.0032: real time    0.0032
    OFIELD:  cpu time    0.0000: real time    0.0000

  FORCE on cell =-STRESS in cart. coord.  units (eV):
  Direction    XX          YY          ZZ          XY          YZ          ZX
  --------------------------------------------------------------------------------------
  Alpha Z   173.21424   173.21424   173.21424
  Ewald   -1243.94037 -1204.25565 -2592.89137   -36.43638  -174.72272  -294.09945
  Hartree  1629.68439  1664.46869   447.29883   -31.93750  -153.14827  -257.78486
  E(xc)    -306.89077  -306.89015  -306.91182    -0.00057    -0.00273    -0.00459
  Local   -2020.29740 -2094.76073   510.86739    68.36952   327.84874   551.84691
  n-local   343.47334   343.93690   343.21596    -0.01095    -0.74062     0.16160
  augment   506.74407   506.74273   506.78300     0.00097     0.00504     0.00848
  Kinetic   906.19900   915.20473   911.63496     1.27823    -1.32468     1.28574
  Fock        0.00000     0.00000     0.00000     0.00000     0.00000     0.00000
  -------------------------------------------------------------------------------------
  Total      -7.05968    -7.06687    -6.81497     0.00661     0.03170     0.05335
  in kB     -64.37530   -64.44092   -62.14384     0.06029     0.28903     0.48651
  external pressure =      -63.65 kB  Pullay stress =        0.00 kB


 VOLUME and BASIS-vectors are now :
 -----------------------------------------------------------------------------
  energy-cutoff  :      441.00
  volume of cell :      175.70
      direct lattice vectors                 reciprocal lattice vectors
     4.308252000  0.000000000  9.880360000     0.232112699 -0.126402390  0.000000000
     2.060445000  3.783595000  9.880360000     0.000000000  0.264298901  0.000000000
     0.000000000  0.000000000 10.778801000    -0.212765504 -0.126402479  0.092774697

  length of vectors
    10.778800909 10.778800418 10.778801000     0.264298826  0.264298901  0.264298867


 FORCES acting on ions
    electron-ion (+dipol)            ewald-force                    non-local-force                 convergence-correction
 -----------------------------------------------------------------------------------------------
   -.910E+02 -.541E+02 -.436E+03   0.899E+02 0.534E+02 0.431E+03   0.120E+01 0.713E+00 0.575E+01   -.135E-03 -.803E-04 -.648E-03
   0.910E+02 0.541E+02 0.436E+03   -.899E+02 -.534E+02 -.431E+03   -.120E+01 -.713E+00 -.575E+01   0.135E-03 0.803E-04 0.648E-03
   -.457E-15 0.222E-14 0.499E-14   -.213E-13 -.977E-14 0.355E-13   0.000E+00 0.000E+00 0.132E-22   -.152E-12 -.870E-13 -.715E-12
   0.547E+02 0.325E+02 0.262E+03   -.552E+02 -.328E+02 -.265E+03   0.709E+00 0.421E+00 0.340E+01   -.210E-04 -.125E-04 -.101E-03
   -.547E+02 -.325E+02 -.262E+03   0.552E+02 0.328E+02 0.265E+03   -.709E+00 -.421E+00 -.340E+01   0.210E-04 0.125E-04 0.101E-03
 -----------------------------------------------------------------------------------------------
   -.416E-11 0.847E-11 0.294E-10   -.355E-13 0.711E-14 -.114E-12   -.111E-15 0.111E-15 0.888E-15   -.304E-12 -.401E-12 -.159E-11
 
 
 POSITION                                       TOTAL-FORCE (eV/Angst)
 -----------------------------------------------------------------------------------
      2.53751      1.50752     12.16801         0.069170      0.041093      0.331686
      3.83119      2.27608     18.37151        -0.069170     -0.041093     -0.331686
      0.00000      0.00000      0.00000         0.000000      0.000000     -0.000000
      1.37382      0.81618      6.58783         0.194803      0.115731      0.934132
      4.99487      2.96742     23.95169        -0.194803     -0.115731     -0.934132
 -----------------------------------------------------------------------------------
    total drift:                               -0.000000      0.000000      0.000000


--------------------------------------------------------------------------------------------------------



  FREE ENERGIE OF THE ION-ELECTRON SYSTEM (eV)
  ---------------------------------------------------
  free  energy   TOTEN  =       -19.67586857 eV

  energy  without entropy=      -19.67467610  energy(sigma->0) =      -19.67557045
 


--------------------------------------------------------------------------------------------------------


    POTLOK:  cpu time    0.0603: real time    0.0602


--------------------------------------------------------------------------------------------------------


 writing wavefunctions
     LOOP+:  cpu time  111.5626: real time  114.9322
    4ORBIT:  cpu time    0.0000: real time    0.0000

 total amount of memory used by VASP on root node    50463. kBytes
========================================================================

   base      :      30000. kBytes
   nonlr-proj:       1561. kBytes
   fftplans  :       3364. kBytes
   grid      :       5485. kBytes
   one-center:         15. kBytes
   wavefun   :      10038. kBytes
 
  
  
 General timing and accounting informations for this job:
 ========================================================
  
                  Total CPU time used (sec):      115.005
                            User time (sec):      114.191
                          System time (sec):        0.814
                         Elapsed time (sec):      119.297
  
                   Maximum memory used (kb):       74836.
                   Average memory used (kb):           0.
  
                          Minor page faults:        35738
                          Major page faults:            0
                 Voluntary context switches:         6322
