 vasp.5.4.1 24Jun15 (build Jun 17 2016 15:57:28) complex                        
  
 executed on           IFC91_ompi date 2016.12.07  20:11:50
 running on   15 total cores
 each image running on    5 cores
 distrk:  each k-point on    5 cores,    1 groups
 distr:  one band on NCORES_PER_BAND=   5 cores,    1 groups


--------------------------------------------------------------------------------------------------------


 INCAR:
 POTCAR:    PAW_PBE Li 17Jan2003                  
 POTCAR:   PAW_PBE O 08Apr2002                    
 POTCAR:    PAW_PBE P 17Jan2003                   
 POTCAR:   PAW_PBE Fe 06Sep2000                   

 ----------------------------------------------------------------------------- 
|                                                                             |
|           W    W    AA    RRRRR   N    N  II  N    N   GGGG   !!!           |
|           W    W   A  A   R    R  NN   N  II  NN   N  G    G  !!!           |
|           W    W  A    A  R    R  N N  N  II  N N  N  G       !!!           |
|           W WW W  AAAAAA  RRRRR   N  N N  II  N  N N  G  GGG   !            |
|           WW  WW  A    A  R   R   N   NN  II  N   NN  G    G                |
|           W    W  A    A  R    R  N    N  II  N    N   GGGG   !!!           |
|                                                                             |
|      For optimal performance we recommend to set                            |
|        NCORE= 4 - approx SQRT( number of cores)                             |
|      NCORE specifies how many cores store one orbital (NPAR=cpu/NCORE).     |
|      This setting can  greatly improve the performance of VASP for DFT.     |
|      The default, NPAR=number of cores might be grossly inefficient         |
|      on modern multi-core architectures or massively parallel machines.     |
|      Do your own testing !!!!                                               |
|      Unfortunately you need to use the default for GW and RPA calculations. |
|      (for HF NCORE is supported but not extensively tested yet)             |
|                                                                             |
 ----------------------------------------------------------------------------- 

 POTCAR:    PAW_PBE Li 17Jan2003                  
   VRHFIN =Li: s1p0                                                             
   LEXCH  = PE                                                                  
   EATOM  =     5.3001 eV,     .3895 Ry                                         
                                                                                
   TITEL  = PAW_PBE Li 17Jan2003                                                
   LULTRA =        F    use ultrasoft PP ?                                      
   IUNSCR =        1    unscreen: 0-lin 1-nonlin 2-no                           
   RPACOR =    1.500    partial core radius                                     
   POMASS =    7.010; ZVAL   =    1.000    mass and valenz                      
   RCORE  =    2.050    outmost cutoff radius                                   
   RWIGS  =    2.600; RWIGS  =    1.376    wigner-seitz radius (au A)           
   ENMAX  =  140.000; ENMIN  =  100.000 eV                                      
   ICORE  =        2    local potential                                         
   LCOR   =        T    correct aug charges                                     
   LPAW   =        T    paw PP                                                  
   EAUG   =  331.638                                                            
   DEXC   =    -.010                                                            
   RMAX   =    4.263    core radius for proj-oper                               
   RAUG   =    1.300    factor for augmentation sphere                          
   RDEP   =    2.094    radius for radial grids                                 
   QCUT   =   -2.932; QGAM   =    5.865    optimization parameters              
                                                                                
   Description                                                                  
     l     E      TYP  RCUT    TYP  RCUT                                        
     0   .000     23  2.050                                                     
     0  2.000     23  2.050                                                     
     1   .000     23  2.050                                                     
     2   .000     23  2.050                                                     
  local pseudopotential read in
  partial core-charges read in
  atomic valenz-charges read in
  non local Contribution for L=           0  read in
    real space projection operators read in
  non local Contribution for L=           0  read in
    real space projection operators read in
  non local Contribution for L=           1  read in
    real space projection operators read in
    PAW grid and wavefunctions read in
 
   number of l-projection  operators is LMAX  =           3
   number of lm-projection operators is LMMAX =           5
 
 POTCAR:   PAW_PBE O 08Apr2002                    
   VRHFIN =O: s2p4                                                              
   LEXCH  = PE                                                                  
   EATOM  =   432.3788 eV,   31.7789 Ry                                         
                                                                                
   TITEL  = PAW_PBE O 08Apr2002                                                 
   LULTRA =        F    use ultrasoft PP ?                                      
   IUNSCR =        0    unscreen: 0-lin 1-nonlin 2-no                           
   RPACOR =     .000    partial core radius                                     
   POMASS =   16.000; ZVAL   =    6.000    mass and valenz                      
   RCORE  =    1.520    outmost cutoff radius                                   
   RWIGS  =    1.550; RWIGS  =     .820    wigner-seitz radius (au A)           
   ENMAX  =  400.000; ENMIN  =  300.000 eV                                      
   ICORE  =        2    local potential                                         
   LCOR   =        T    correct aug charges                                     
   LPAW   =        T    paw PP                                                  
   EAUG   =  605.392                                                            
   DEXC   =     .000                                                            
   RMAX   =    2.264    core radius for proj-oper                               
   RAUG   =    1.300    factor for augmentation sphere                          
   RDEP   =    1.550    radius for radial grids                                 
   QCUT   =   -5.520; QGAM   =   11.041    optimization parameters              
                                                                                
   Description                                                                  
     l     E      TYP  RCUT    TYP  RCUT                                        
     0   .000     23  1.200                                                     
     0  -.700     23  1.200                                                     
     1   .000     23  1.520                                                     
     1   .600     23  1.520                                                     
     2   .000      7  1.500                                                     
  local pseudopotential read in
  atomic valenz-charges read in
  non local Contribution for L=           0  read in
    real space projection operators read in
  non local Contribution for L=           0  read in
    real space projection operators read in
  non local Contribution for L=           1  read in
    real space projection operators read in
  non local Contribution for L=           1  read in
    real space projection operators read in
    PAW grid and wavefunctions read in
 
   number of l-projection  operators is LMAX  =           4
   number of lm-projection operators is LMMAX =           8
 
 POTCAR:    PAW_PBE P 17Jan2003                   
   VRHFIN =P : s2p3                                                             
   LEXCH  = PE                                                                  
   EATOM  =   176.0430 eV,   12.9388 Ry                                         
                                                                                
   TITEL  = PAW_PBE P 17Jan2003                                                 
   LULTRA =        F    use ultrasoft PP ?                                      
   IUNSCR =        1    unscreen: 0-lin 1-nonlin 2-no                           
   RPACOR =    1.500    partial core radius                                     
   POMASS =   30.974; ZVAL   =    5.000    mass and valenz                      
   RCORE  =    1.900    outmost cutoff radius                                   
   RWIGS  =    2.330; RWIGS  =    1.233    wigner-seitz radius (au A)           
   ENMAX  =  270.000; ENMIN  =  191.280 eV                                      
   ICORE  =        2    local potential                                         
   LCOR   =        T    correct aug charges                                     
   LPAW   =        T    paw PP                                                  
   EAUG   =  342.924                                                            
   DEXC   =    -.002                                                            
   RMAX   =    2.887    core radius for proj-oper                               
   RAUG   =    1.300    factor for augmentation sphere                          
   RDEP   =    1.931    radius for radial grids                                 
   QCUT   =   -4.330; QGAM   =    8.659    optimization parameters              
                                                                                
   Description                                                                  
     l     E      TYP  RCUT    TYP  RCUT                                        
     0   .000     23  1.900                                                     
     0   .000     23  1.900                                                     
     1   .000     23  1.900                                                     
     1   .000     23  1.900                                                     
     2   .000     23  1.900                                                     
  local pseudopotential read in
  partial core-charges read in
  atomic valenz-charges read in
  non local Contribution for L=           0  read in
    real space projection operators read in
  non local Contribution for L=           0  read in
    real space projection operators read in
  non local Contribution for L=           1  read in
    real space projection operators read in
  non local Contribution for L=           1  read in
    real space projection operators read in
    PAW grid and wavefunctions read in
 
   number of l-projection  operators is LMAX  =           4
   number of lm-projection operators is LMMAX =           8
 
 POTCAR:   PAW_PBE Fe 06Sep2000                   
   VRHFIN =Fe:  d7 s1                                                           
   LEXCH  = PE                                                                  
   EATOM  =   594.4687 eV,   43.6922 Ry                                         
                                                                                
   TITEL  = PAW_PBE Fe 06Sep2000                                                
   LULTRA =        F    use ultrasoft PP ?                                      
   IUNSCR =        1    unscreen: 0-lin 1-nonlin 2-no                           
   RPACOR =    2.000    partial core radius                                     
   POMASS =   55.847; ZVAL   =    8.000    mass and valenz                      
   RCORE  =    2.300    outmost cutoff radius                                   
   RWIGS  =    2.460; RWIGS  =    1.302    wigner-seitz radius (au A)           
   ENMAX  =  267.883; ENMIN  =  200.912 eV                                      
   RCLOC  =    1.701    cutoff for local pot                                    
   LCOR   =        T    correct aug charges                                     
   LPAW   =        T    paw PP                                                  
   EAUG   =  511.368                                                            
   DEXC   =    -.022                                                            
   RMAX   =    2.817    core radius for proj-oper                               
   RAUG   =    1.300    factor for augmentation sphere                          
   RDEP   =    2.442    radius for radial grids                                 
   QCUT   =   -4.437; QGAM   =    8.874    optimization parameters              
                                                                                
   Description                                                                  
     l     E      TYP  RCUT    TYP  RCUT                                        
     2   .000     23  2.300                                                     
     2   .000     23  2.300                                                     
     0   .000     23  2.300                                                     
     0   .000     23  2.300                                                     
     1  -.200     23  2.300                                                     
     1   .000     23  2.300                                                     
     3   .000      7   .000                                                     
  local pseudopotential read in
  partial core-charges read in
  atomic valenz-charges read in
  non local Contribution for L=           2  read in
    real space projection operators read in
  non local Contribution for L=           2  read in
    real space projection operators read in
  non local Contribution for L=           0  read in
    real space projection operators read in
  non local Contribution for L=           0  read in
    real space projection operators read in
  non local Contribution for L=           1  read in
    real space projection operators read in
  non local Contribution for L=           1  read in
    real space projection operators read in
    PAW grid and wavefunctions read in
 
   number of l-projection  operators is LMAX  =           6
   number of lm-projection operators is LMMAX =          18
 
 Optimization of the real space projectors (new method)

 maximal supplied QI-value         = 18.33
 optimisation between [QCUT,QGAM] = [ 10.63, 21.45] = [ 31.65,128.80] Ry 
 Optimized for a Real-space Cutoff    1.13 Angstroem

   l    n(q)    QCUT    max X(q) W(low)/X(q) W(high)/X(q)  e(spline) 
   0      7    10.632    30.666    0.45E-04    0.40E-04    0.12E-07
   0      7    10.632    39.284    0.21E-03    0.37E-03    0.66E-07
   1      7    10.632     4.214    0.48E-03    0.63E-04    0.43E-07
 Optimization of the real space projectors (new method)

 maximal supplied QI-value         = 24.76
 optimisation between [QCUT,QGAM] = [ 10.64, 21.29] = [ 31.73,126.92] Ry 
 Optimized for a Real-space Cutoff    1.24 Angstroem

   l    n(q)    QCUT    max X(q) W(low)/X(q) W(high)/X(q)  e(spline) 
   0      8    10.645     4.192    0.70E-04    0.97E-04    0.61E-07
   0      8    10.645     8.473    0.43E-03    0.71E-03    0.17E-06
   1      7    10.645     2.474    0.95E-04    0.12E-03    0.31E-07
   1      7    10.645     3.912    0.31E-03    0.57E-03    0.16E-06
 Optimization of the real space projectors (new method)

 maximal supplied QI-value         = 19.84
 optimisation between [QCUT,QGAM] = [ 10.71, 21.43] = [ 32.15,128.60] Ry 
 Optimized for a Real-space Cutoff    1.20 Angstroem

   l    n(q)    QCUT    max X(q) W(low)/X(q) W(high)/X(q)  e(spline) 
   0      8    10.715     6.651    0.19E-04    0.13E-04    0.49E-08
   0      8    10.715    90.285    0.29E-03    0.24E-04    0.62E-07
   1      7    10.715     4.328    0.49E-04    0.39E-04    0.16E-07
   1      7    10.715    54.583    0.22E-03    0.53E-03    0.76E-07
 Optimization of the real space projectors (new method)

 maximal supplied QI-value         = 16.25
 optimisation between [QCUT,QGAM] = [ 10.73, 21.45] = [ 32.22,128.87] Ry 
 Optimized for a Real-space Cutoff    1.39 Angstroem

   l    n(q)    QCUT    max X(q) W(low)/X(q) W(high)/X(q)  e(spline) 
   2      8    10.726     4.378    0.63E-04    0.18E-04    0.44E-07
   2      8    10.726    23.237    0.16E-03    0.54E-03    0.20E-06
   0      9    10.726    17.641    0.27E-04    0.11E-04    0.53E-08
   0      9    10.726    50.908    0.30E-03    0.17E-03    0.46E-07
   1      8    10.726     6.148    0.30E-04    0.44E-04    0.30E-07
   1      8    10.726     8.345    0.17E-03    0.14E-03    0.14E-06
  PAW_PBE Li 17Jan2003                  :
 energy of atom  1       EATOM=   -5.3001
 kinetic energy error for atom=    0.0000 (will be added to EATOM!!)
 PAW_PBE O 08Apr2002                    :
 energy of atom  2       EATOM= -432.3788
 kinetic energy error for atom=    0.0450 (will be added to EATOM!!)
  PAW_PBE P 17Jan2003                   :
 energy of atom  3       EATOM= -176.0430
 kinetic energy error for atom=    0.0019 (will be added to EATOM!!)
 PAW_PBE Fe 06Sep2000                   :
 energy of atom  4       EATOM= -594.4687
 kinetic energy error for atom=    0.0038 (will be added to EATOM!!)
 
 
 POSCAR: Li   O    P    Fe                       
  positions in direct lattice
  No initial velocities read in
 exchange correlation table for  LEXCH =        8
   RHO(1)=    0.500       N(1)  =     2000
   RHO(2)=  100.500       N(2)  =     4000
 
 POSCAR: Li   O    P    Fe                       
  positions in direct lattice
  No initial velocities read in
 
 POSCAR: Li   O    P    Fe                       
  positions in direct lattice
  No initial velocities read in
 


--------------------------------------------------------------------------------------------------------


 ion  position               nearest neighbor table
   1  0.000  0.375  0.000-   4 1.83  14 1.83  19 2.29  20 2.43   5 2.48  26 2.90  20 3.00
   2  0.500  0.500  0.500-  15 2.17  16 2.17   9 2.25  17 2.25  12 2.27  11 2.27  21 2.74  22 2.74
                             3 3.04   3 3.04
   3  0.500  0.000  0.500-  15 2.16  16 2.16   9 2.25  17 2.25  13 2.28  18 2.28  21 2.74  22 2.74
                             2 3.04   2 3.04
   4  0.115  0.255  0.753-  20 1.54   1 1.83  26 1.96
   5  0.826  0.549  0.725-  23 1.62  25 2.06  24 2.14   1 2.48
   6  0.822  0.949  0.715-  23 1.61  25 2.05  24 2.09
   7  0.885  0.745  0.247-  23 1.54  25 1.96
   8  0.040  0.746  0.658-  23 1.54  27 2.09
   9  0.391  0.751  0.248-  21 1.55  27 2.06   3 2.25   2 2.25
  10  0.178  0.051  0.285-  20 1.61  26 2.05  27 2.09
  11  0.674  0.453  0.221-  22 1.59  24 2.18  25 2.18   2 2.27
  12  0.326  0.547  0.779-  21 1.59  27 2.18  26 2.18   2 2.27
  13  0.325  0.954  0.780-  21 1.60  26 2.14  27 2.16   3 2.28
  14  0.960  0.254  0.342-  20 1.54   1 1.83  24 2.09
  15  0.463  0.249  0.187-  22 1.56   3 2.16   2 2.17  26 2.24
  16  0.537  0.751  0.813-  21 1.56   3 2.16   2 2.17  25 2.24
  17  0.609  0.249  0.752-  22 1.55  24 2.06   3 2.25   2 2.25
  18  0.675  0.046  0.220-  22 1.60  25 2.14  24 2.16   3 2.28
  19  0.174  0.451  0.275-  20 1.62  26 2.06  27 2.14   1 2.29
  20  0.101  0.250  0.431-  14 1.54   4 1.54  10 1.61  19 1.62   1 2.43  26 2.70   1 3.00
  21  0.396  0.750  0.922-   9 1.55  16 1.56  12 1.59  13 1.60   3 2.74   2 2.74  27 2.77
  22  0.604  0.250  0.078-  17 1.55  15 1.56  11 1.59  18 1.60   3 2.74   2 2.74  24 2.77
  23  0.899  0.750  0.569-   8 1.54   7 1.54   6 1.61   5 1.62  25 2.70
  24  0.777  0.247  0.521-  17 2.06   6 2.09  14 2.09   5 2.14  18 2.16  11 2.18  22 2.77
  25  0.733  0.752  0.004-   7 1.96   6 2.05   5 2.06  18 2.14  11 2.18  16 2.24  23 2.70
  26  0.267  0.248  0.996-   4 1.96  10 2.05  19 2.06  13 2.14  12 2.18  15 2.24  20 2.70   1 2.90

  27  0.223  0.753  0.479-   9 2.06  10 2.09   8 2.09  19 2.14  13 2.16  12 2.18  21 2.77
 
  LATTYP: Found a simple orthorhombic cell.
 ALAT       =     4.7519550000
 B/A-ratio  =     1.2810203379
 C/A-ratio  =     2.1992354726
  
  Lattice vectors:
  
 A1 = (   0.0000000000,   0.0000000000,  -4.7519550000)
 A2 = (   0.0000000000,  -6.0873510000,   0.0000000000)
 A3 = ( -10.4506680000,   0.0000000000,   0.0000000000)


Analysis of symmetry for initial positions (statically):
=====================================================================
 Subroutine PRICEL returns:
 Original cell was already a primitive cell.
 

 Routine SETGRP: Setting up the symmetry group for a 
 simple orthorhombic supercell.


 Subroutine GETGRP returns: Found  1 space group operations
 (whereof  1 operations were pure point group operations)
 out of a pool of  8 trial point group operations.


The static configuration has the point symmetry C_1 .


Analysis of symmetry for dynamics (positions and initial velocities):
=====================================================================
 Subroutine PRICEL returns:
 Original cell was already a primitive cell.
 

 Routine SETGRP: Setting up the symmetry group for a 
 simple orthorhombic supercell.


 Subroutine GETGRP returns: Found  1 space group operations
 (whereof  1 operations were pure point group operations)
 out of a pool of  8 trial point group operations.


The dynamic configuration has the point symmetry C_1 .
 
 
 KPOINTS: Automatic Mesh                          

Automatic generation of k-mesh.
Space group operators:
 irot       det(A)        alpha          n_x          n_y          n_z        tau_x        tau_y        tau_z
    1     1.000000     0.000000     1.000000     0.000000     0.000000     0.000000     0.000000     0.000000
 
 Subroutine IBZKPT returns following result:
 ===========================================
 
 Found     46 irreducible k-points:
 
 Following reciprocal coordinates:
            Coordinates               Weight
  0.000000  0.000000  0.000000      1.000000
  0.333333  0.000000  0.000000      2.000000
  0.000000  0.200000  0.000000      2.000000
  0.333333  0.200000  0.000000      2.000000
 -0.333333  0.200000  0.000000      2.000000
  0.000000  0.400000  0.000000      2.000000
  0.333333  0.400000  0.000000      2.000000
 -0.333333  0.400000  0.000000      2.000000
  0.000000  0.000000  0.166667      2.000000
  0.333333  0.000000  0.166667      2.000000
 -0.333333  0.000000  0.166667      2.000000
  0.000000  0.200000  0.166667      2.000000
  0.333333  0.200000  0.166667      2.000000
 -0.333333  0.200000  0.166667      2.000000
  0.000000  0.400000  0.166667      2.000000
  0.333333  0.400000  0.166667      2.000000
 -0.333333  0.400000  0.166667      2.000000
  0.000000 -0.400000  0.166667      2.000000
  0.333333 -0.400000  0.166667      2.000000
 -0.333333 -0.400000  0.166667      2.000000
  0.000000 -0.200000  0.166667      2.000000
  0.333333 -0.200000  0.166667      2.000000
 -0.333333 -0.200000  0.166667      2.000000
  0.000000  0.000000  0.333333      2.000000
  0.333333  0.000000  0.333333      2.000000
 -0.333333  0.000000  0.333333      2.000000
  0.000000  0.200000  0.333333      2.000000
  0.333333  0.200000  0.333333      2.000000
 -0.333333  0.200000  0.333333      2.000000
  0.000000  0.400000  0.333333      2.000000
  0.333333  0.400000  0.333333      2.000000
 -0.333333  0.400000  0.333333      2.000000
  0.000000 -0.400000  0.333333      2.000000
  0.333333 -0.400000  0.333333      2.000000
 -0.333333 -0.400000  0.333333      2.000000
  0.000000 -0.200000  0.333333      2.000000
  0.333333 -0.200000  0.333333      2.000000
 -0.333333 -0.200000  0.333333      2.000000
  0.000000  0.000000  0.500000      1.000000
  0.333333  0.000000  0.500000      2.000000
  0.000000  0.200000  0.500000      2.000000
  0.333333  0.200000  0.500000      2.000000
 -0.333333  0.200000  0.500000      2.000000
  0.000000  0.400000  0.500000      2.000000
  0.333333  0.400000  0.500000      2.000000
 -0.333333  0.400000  0.500000      2.000000
 
 Following cartesian coordinates:
            Coordinates               Weight
  0.000000  0.000000  0.000000      1.000000
  0.031896  0.000000  0.000000      2.000000
  0.000000  0.032855  0.000000      2.000000
  0.031896  0.032855  0.000000      2.000000
 -0.031896  0.032855  0.000000      2.000000
  0.000000  0.065710  0.000000      2.000000
  0.031896  0.065710  0.000000      2.000000
 -0.031896  0.065710  0.000000      2.000000
  0.000000  0.000000  0.035073      2.000000
  0.031896  0.000000  0.035073      2.000000
 -0.031896  0.000000  0.035073      2.000000
  0.000000  0.032855  0.035073      2.000000
  0.031896  0.032855  0.035073      2.000000
 -0.031896  0.032855  0.035073      2.000000
  0.000000  0.065710  0.035073      2.000000
  0.031896  0.065710  0.035073      2.000000
 -0.031896  0.065710  0.035073      2.000000
  0.000000 -0.065710  0.035073      2.000000
  0.031896 -0.065710  0.035073      2.000000
 -0.031896 -0.065710  0.035073      2.000000
  0.000000 -0.032855  0.035073      2.000000
  0.031896 -0.032855  0.035073      2.000000
 -0.031896 -0.032855  0.035073      2.000000
  0.000000  0.000000  0.070147      2.000000
  0.031896  0.000000  0.070147      2.000000
 -0.031896  0.000000  0.070147      2.000000
  0.000000  0.032855  0.070147      2.000000
  0.031896  0.032855  0.070147      2.000000
 -0.031896  0.032855  0.070147      2.000000
  0.000000  0.065710  0.070147      2.000000
  0.031896  0.065710  0.070147      2.000000
 -0.031896  0.065710  0.070147      2.000000
  0.000000 -0.065710  0.070147      2.000000
  0.031896 -0.065710  0.070147      2.000000
 -0.031896 -0.065710  0.070147      2.000000
  0.000000 -0.032855  0.070147      2.000000
  0.031896 -0.032855  0.070147      2.000000
 -0.031896 -0.032855  0.070147      2.000000
  0.000000  0.000000  0.105220      1.000000
  0.031896  0.000000  0.105220      2.000000
  0.000000  0.032855  0.105220      2.000000
  0.031896  0.032855  0.105220      2.000000
 -0.031896  0.032855  0.105220      2.000000
  0.000000  0.065710  0.105220      2.000000
  0.031896  0.065710  0.105220      2.000000
 -0.031896  0.065710  0.105220      2.000000
 


--------------------------------------------------------------------------------------------------------




 Dimension of arrays:
   k-points           NKPTS =     46   k-points in BZ     NKDIM =     46   number of bands    NBANDS=     95
   number of dos      NEDOS =    301   number of ions     NIONS =     27
   non local maximal  LDIM  =      6   non local SUM 2l+1 LMDIM =     18
   total plane-waves  NPLWV =  41472
   max r-space proj   IRMAX =   1609   max aug-charges    IRDMAX=   5086
   dimension x,y,z NGX =    54 NGY =   32 NGZ =   24
   dimension x,y,z NGXF=   108 NGYF=   64 NGZF=   48
   support grid    NGXF=   108 NGYF=   64 NGZF=   48
   ions per type =               3  16   4   4
 NGX,Y,Z   is equivalent  to a cutoff of   8.59,  8.74,  8.40 a.u.
 NGXF,Y,Z  is equivalent  to a cutoff of  17.18, 17.48, 16.79 a.u.


 I would recommend the setting:
   dimension x,y,z NGX =    54 NGY =   31 NGZ =   24
 SYSTEM =  Final conf. for neb from mp-19017       
 POSCAR =  Li   O    P    Fe                       

 Startparameter for this run:
   NWRITE =      2    write-flag & timer
   PREC   = normal    normal or accurate (medium, high low for compatibility)
   ISTART =      0    job   : 0-new  1-cont  2-samecut
   ICHARG =      2    charge: 1-file 2-atom 10-const
   ISPIN  =      1    spin polarized calculation?
   LNONCOLLINEAR =      F non collinear calculations
   LSORBIT =      F    spin-orbit coupling
   INIWAV =      1    electr: 0-lowe 1-rand  2-diag
   LASPH  =      F    aspherical Exc in radial PAW
   METAGGA=      F    non-selfconsistent MetaGGA calc.

 Electronic Relaxation 1
   ENCUT  =  441.0 eV  32.41 Ry    5.69 a.u.  17.89 10.42  8.14*2*pi/ulx,y,z
   ENINI  =  441.0     initial cutoff
   ENAUG  =  776.2 eV  augmentation charge cutoff
   NELM   =     50;   NELMIN=  4; NELMDL= -5     # of ELM steps 
   EDIFF  = 0.6E-05   stopping-criterion for ELM
   LREAL  =      T    real-space projection
   NLSPLINE    = F    spline interpolate recip. space projectors
   LCOMPAT=      F    compatible to vasp.4.4
   GGA_COMPAT  = T    GGA compatible to vasp.4.4-vasp.4.6
   LMAXPAW     = -100 max onsite density
   LMAXMIX     =    2 max onsite mixed and CHGCAR
   VOSKOWN=      0    Vosko Wilk Nusair interpolation
   ROPT   =   -0.00050  -0.00050  -0.00050  -0.00050
 Ionic relaxation
   EDIFFG = -.3E-01   stopping-criterion for IOM
   NSW    =     20    number of steps for IOM
   NBLOCK =      1;   KBLOCK =     20    inner block; outer block 
   IBRION =      1    ionic relax: 0-MD 1-quasi-New 2-CG
   NFREE  =      0    steps in history (QN), initial steepest desc. (CG)
   ISIF   =      2    stress and relaxation
   IWAVPR =     11    prediction:  0-non 1-charg 2-wave 3-comb
   ISYM   =      2    0-nonsym 1-usesym 2-fastsym
   LCORR  =      T    Harris-Foulkes like correction to forces

   POTIM  = 0.5000    time-step for ionic-motion
   TEIN   =    0.0    initial temperature
   TEBEG  =    0.0;   TEEND  =   0.0 temperature during run
   SMASS  =  -3.00    Nose mass-parameter (am)
   estimated Nose-frequenzy (Omega)   =  0.10E-29 period in steps =****** mass=  -0.250E-26a.u.
   SCALEE = 1.0000    scale energy and forces
   NPACO  =    256;   APACO  = 16.0  distance and # of slots for P.C.
   PSTRESS=    0.0 pullay stress

  Mass of Ions in am
   POMASS =   7.01 16.00 30.97 55.85
  Ionic Valenz
   ZVAL   =   1.00  6.00  5.00  8.00
  Atomic Wigner-Seitz radii
   RWIGS  =  -1.00 -1.00 -1.00 -1.00
  virtual crystal weights 
   VCA    =   1.00  1.00  1.00  1.00
   NELECT =     151.0000    total number of electrons
   NUPDOWN=      -1.0000    fix difference up-down

 DOS related values:
   EMIN   =  10.00;   EMAX   =-10.00  energy-range for DOS
   EFERMI =   0.00
   ISMEAR =     2;   SIGMA  =   0.20  broadening in eV -4-tet -1-fermi 0-gaus

 Electronic relaxation 2 (details)
   IALGO  =     38    algorithm
   LDIAG  =      T    sub-space diagonalisation (order eigenvalues)
   LSUBROT=      F    optimize rotation matrix (better conditioning)
   TURBO    =      0    0=normal 1=particle mesh
   IRESTART =      0    0=no restart 2=restart with 2 vectors
   NREBOOT  =      0    no. of reboots
   NMIN     =      0    reboot dimension
   EREF     =   0.00    reference energy to select bands
   IMIX   =      4    mixing-type and parameters
     AMIX     =   0.40;   BMIX     =  1.00
     AMIX_MAG =   1.60;   BMIX_MAG =  1.00
     AMIN     =   0.10
     WC   =   100.;   INIMIX=   1;  MIXPRE=   1;  MAXMIX=  40

 Intra band minimization:
   WEIMIN = 0.0010     energy-eigenvalue tresh-hold
   EBREAK =  0.16E-07  absolut break condition
   DEPER  =   0.30     relativ break condition  

   TIME   =   0.40     timestep for ELM

  volume/ion in A,a.u.               =      11.20        75.56
  Fermi-wavevector in a.u.,A,eV,Ry     =   1.298929  2.454621 22.955992  1.687218
  Thomas-Fermi vector in A             =   2.430226
 
 Write flags
   LWAVE  =      T    write WAVECAR
   LCHARG =      T    write CHGCAR
   LVTOT  =      F    write LOCPOT, total local potential
   LVHAR  =      F    write LOCPOT, Hartree potential only
   LELF   =      F    write electronic localiz. function (ELF)
   LORBIT =      0    0 simple, 1 ext, 2 COOP (PROOUT)


 Dipole corrections
   LMONO  =      F    monopole corrections only (constant potential shift)
   LDIPOL =      F    correct potential (dipole corrections)
   IDIPOL =      0    1-x, 2-y, 3-z, 4-all directions 
   EPSILON=  1.0000000 bulk dielectric constant

 Exchange correlation treatment:
   GGA     =    --    GGA type
   LEXCH   =     8    internal setting for exchange type
   VOSKOWN=      0    Vosko Wilk Nusair interpolation
   LHFCALC =     F    Hartree Fock is set to
   LHFONE  =     F    Hartree Fock one center treatment
   AEXX    =    0.0000 exact exchange contribution

 Linear response parameters
   LEPSILON=     F    determine dielectric tensor
   LRPA    =     F    only Hartree local field effects (RPA)
   LNABLA  =     F    use nabla operator in PAW spheres
   LVEL    =     F    velocity operator in full k-point grid
   LINTERFAST=   F  fast interpolation
   KINTER  =     0    interpolate to denser k-point grid
   CSHIFT  =0.1000    complex shift for real part using Kramers Kronig
   OMEGAMAX=  -1.0    maximum frequency
   DEG_THRESHOLD= 0.2000000E-02 threshold for treating states as degnerate
   RTIME   =    0.100 relaxation time in fs

 Orbital magnetization related:
   ORBITALMAG=     F  switch on orbital magnetization
   LCHIMAG   =     F  perturbation theory with respect to B field
   DQ        =  0.001000  dq finite difference perturbation B field



--------------------------------------------------------------------------------------------------------


 quasi-Newton-method for relaxation of ions
 charge density and potential will be updated during run
 non-spin polarized calculation
 Variant of blocked Davidson
 Davidson routine will perform the subspace rotation
 perform sub-space diagonalisation
    after iterative eigenvector-optimisation
 modified Broyden-mixing scheme, WC =      100.0
 initial mixing is a Kerker type mixing with AMIX =  0.4000 and BMIX =      1.0000
 Hartree-type preconditioning will be used
 using additional bands           19
 real space projection scheme for non local part
 use partial core corrections
 calculate Harris-corrections to forces 
   (improved forces if not selfconsistent)
 use gradient corrections 
 use of overlap-Matrix (Vanderbilt PP)
 Methfessel and Paxton  Order N= 2 SIGMA  =   0.20


--------------------------------------------------------------------------------------------------------


  energy-cutoff  :      441.00
  volume of cell :      302.30
      direct lattice vectors                 reciprocal lattice vectors
    10.450668000  0.000000000  0.000000000     0.095687663  0.000000000  0.000000000
     0.000000000  6.087351000  0.000000000     0.000000000  0.164275068  0.000000000
     0.000000000  0.000000000  4.751955000     0.000000000  0.000000000  0.210439703

  length of vectors
    10.450668000  6.087351000  4.751955000     0.095687663  0.164275068  0.210439703


 
 k-points in units of 2pi/SCALE and weight: Automatic Mesh                          
   0.00000000  0.00000000  0.00000000       0.011
   0.03189589  0.00000000  0.00000000       0.022
   0.00000000  0.03285501  0.00000000       0.022
   0.03189589  0.03285501  0.00000000       0.022
  -0.03189589  0.03285501  0.00000000       0.022
   0.00000000  0.06571003  0.00000000       0.022
   0.03189589  0.06571003  0.00000000       0.022
  -0.03189589  0.06571003  0.00000000       0.022
   0.00000000  0.00000000  0.03507328       0.022
   0.03189589  0.00000000  0.03507328       0.022
  -0.03189589  0.00000000  0.03507328       0.022
   0.00000000  0.03285501  0.03507328       0.022
   0.03189589  0.03285501  0.03507328       0.022
  -0.03189589  0.03285501  0.03507328       0.022
   0.00000000  0.06571003  0.03507328       0.022
   0.03189589  0.06571003  0.03507328       0.022
  -0.03189589  0.06571003  0.03507328       0.022
   0.00000000 -0.06571003  0.03507328       0.022
   0.03189589 -0.06571003  0.03507328       0.022
  -0.03189589 -0.06571003  0.03507328       0.022
   0.00000000 -0.03285501  0.03507328       0.022
   0.03189589 -0.03285501  0.03507328       0.022
  -0.03189589 -0.03285501  0.03507328       0.022
   0.00000000  0.00000000  0.07014657       0.022
   0.03189589  0.00000000  0.07014657       0.022
  -0.03189589  0.00000000  0.07014657       0.022
   0.00000000  0.03285501  0.07014657       0.022
   0.03189589  0.03285501  0.07014657       0.022
  -0.03189589  0.03285501  0.07014657       0.022
   0.00000000  0.06571003  0.07014657       0.022
   0.03189589  0.06571003  0.07014657       0.022
  -0.03189589  0.06571003  0.07014657       0.022
   0.00000000 -0.06571003  0.07014657       0.022
   0.03189589 -0.06571003  0.07014657       0.022
  -0.03189589 -0.06571003  0.07014657       0.022
   0.00000000 -0.03285501  0.07014657       0.022
   0.03189589 -0.03285501  0.07014657       0.022
  -0.03189589 -0.03285501  0.07014657       0.022
   0.00000000  0.00000000  0.10521985       0.011
   0.03189589  0.00000000  0.10521985       0.022
   0.00000000  0.03285501  0.10521985       0.022
   0.03189589  0.03285501  0.10521985       0.022
  -0.03189589  0.03285501  0.10521985       0.022
   0.00000000  0.06571003  0.10521985       0.022
   0.03189589  0.06571003  0.10521985       0.022
  -0.03189589  0.06571003  0.10521985       0.022
 
 k-points in reciprocal lattice and weights: Automatic Mesh                          
   0.00000000  0.00000000  0.00000000       0.011
   0.33333333  0.00000000  0.00000000       0.022
   0.00000000  0.20000000  0.00000000       0.022
   0.33333333  0.20000000  0.00000000       0.022
  -0.33333333  0.20000000  0.00000000       0.022
   0.00000000  0.40000000  0.00000000       0.022
   0.33333333  0.40000000  0.00000000       0.022
  -0.33333333  0.40000000  0.00000000       0.022
   0.00000000  0.00000000  0.16666667       0.022
   0.33333333  0.00000000  0.16666667       0.022
  -0.33333333  0.00000000  0.16666667       0.022
   0.00000000  0.20000000  0.16666667       0.022
   0.33333333  0.20000000  0.16666667       0.022
  -0.33333333  0.20000000  0.16666667       0.022
   0.00000000  0.40000000  0.16666667       0.022
   0.33333333  0.40000000  0.16666667       0.022
  -0.33333333  0.40000000  0.16666667       0.022
   0.00000000 -0.40000000  0.16666667       0.022
   0.33333333 -0.40000000  0.16666667       0.022
  -0.33333333 -0.40000000  0.16666667       0.022
   0.00000000 -0.20000000  0.16666667       0.022
   0.33333333 -0.20000000  0.16666667       0.022
  -0.33333333 -0.20000000  0.16666667       0.022
   0.00000000  0.00000000  0.33333333       0.022
   0.33333333  0.00000000  0.33333333       0.022
  -0.33333333  0.00000000  0.33333333       0.022
   0.00000000  0.20000000  0.33333333       0.022
   0.33333333  0.20000000  0.33333333       0.022
  -0.33333333  0.20000000  0.33333333       0.022
   0.00000000  0.40000000  0.33333333       0.022
   0.33333333  0.40000000  0.33333333       0.022
  -0.33333333  0.40000000  0.33333333       0.022
   0.00000000 -0.40000000  0.33333333       0.022
   0.33333333 -0.40000000  0.33333333       0.022
  -0.33333333 -0.40000000  0.33333333       0.022
   0.00000000 -0.20000000  0.33333333       0.022
   0.33333333 -0.20000000  0.33333333       0.022
  -0.33333333 -0.20000000  0.33333333       0.022
   0.00000000  0.00000000  0.50000000       0.011
   0.33333333  0.00000000  0.50000000       0.022
   0.00000000  0.20000000  0.50000000       0.022
   0.33333333  0.20000000  0.50000000       0.022
  -0.33333333  0.20000000  0.50000000       0.022
   0.00000000  0.40000000  0.50000000       0.022
   0.33333333  0.40000000  0.50000000       0.022
  -0.33333333  0.40000000  0.50000000       0.022
 
 position of ions in fractional coordinates (direct lattice) 
   0.00000000  0.37500000  0.00000000
   0.50000000  0.50000000  0.50000000
   0.50000000  0.00000000  0.50000000
   0.11543435  0.25537541  0.75333695
   0.82563304  0.54932611  0.72464880
   0.82224957  0.94900343  0.71471724
   0.88456665  0.74462459  0.24666405
   0.04033349  0.74554728  0.65764656
   0.39069406  0.75055961  0.24819403
   0.17775043  0.05099757  0.28528376
   0.67437486  0.45317728  0.22106039
   0.32562514  0.54682272  0.77893961
   0.32497937  0.95425611  0.78030052
   0.95966651  0.25445272  0.34235444
   0.46290038  0.24895150  0.18747506
   0.53709962  0.75104850  0.81252594
   0.60930594  0.24944039  0.75180697
   0.67502063  0.04574489  0.21969948
   0.17436696  0.45067389  0.27535220
   0.10140558  0.25042332  0.43051828
   0.39605075  0.75020905  0.92152209
   0.60394925  0.24979095  0.07847691
   0.89859442  0.74957668  0.56948072
   0.77666773  0.24701737  0.52129908
   0.73257527  0.75246019  0.00392367
   0.26742473  0.24753981  0.99607733
   0.22333227  0.75298263  0.47869992
 
 position of ions in cartesian coordinates  (Angst):
   0.00000000  2.28275663  0.00000000
   5.22533400  3.04367550  2.37597750
   5.22533400  0.00000000  2.37597750
   1.20636611  1.55455978  3.57982331
   8.62841679  3.34394087  3.44349848
   8.59305729  5.77691698  3.39630415
   9.24431234  4.53279122  1.17213644
   0.42151190  4.53840801  3.12510685
   4.08301386  4.56891976  1.17940687
   1.85761071  0.31044010  1.35565560
   7.04766775  2.75864917  1.05046904
   3.40300025  3.32870183  3.70148596
   3.39625151  5.80889187  3.70795295
  10.02915610  1.54894299  1.62685291
   4.83761818  1.51545516  0.89087304
   5.61304982  4.57189584  3.86108671
   6.36765414  1.51843124  3.57255288
   7.05441649  0.27846522  1.04400205
   1.82225121  2.74341013  1.30846127
   1.05975603  1.52441465  2.04580352
   4.13899490  4.56678579  4.37903150
   6.31167310  1.52056521  0.37291875
   9.39091197  4.56293635  2.70614673
   8.11669657  1.50368144  2.47718977
   7.65590091  4.58048927  0.01864512
   2.79476709  1.50686173  4.73331463
   2.33397143  4.58366956  2.27476048
 


--------------------------------------------------------------------------------------------------------


 k-point  1 :   0.0000 0.0000 0.0000  plane waves:    6383
 k-point  2 :   0.3333 0.0000 0.0000  plane waves:    6358
 k-point  3 :   0.0000 0.2000 0.0000  plane waves:    6353
 k-point  4 :   0.3333 0.2000 0.0000  plane waves:    6357
 k-point  5 :  -0.3333 0.2000 0.0000  plane waves:    6357
 k-point  6 :   0.0000 0.4000 0.0000  plane waves:    6363
 k-point  7 :   0.3333 0.4000 0.0000  plane waves:    6345
 k-point  8 :  -0.3333 0.4000 0.0000  plane waves:    6345
 k-point  9 :   0.0000 0.0000 0.1667  plane waves:    6350
 k-point 10 :   0.3333 0.0000 0.1667  plane waves:    6358
 k-point 11 :  -0.3333 0.0000 0.1667  plane waves:    6358
 k-point 12 :   0.0000 0.2000 0.1667  plane waves:    6352
 k-point 13 :   0.3333 0.2000 0.1667  plane waves:    6350
 k-point 14 :  -0.3333 0.2000 0.1667  plane waves:    6350
 k-point 15 :   0.0000 0.4000 0.1667  plane waves:    6341
 k-point 16 :   0.3333 0.4000 0.1667  plane waves:    6345
 k-point 17 :  -0.3333 0.4000 0.1667  plane waves:    6345
 k-point 18 :   0.0000-0.4000 0.1667  plane waves:    6341
 k-point 19 :   0.3333-0.4000 0.1667  plane waves:    6345
 k-point 20 :  -0.3333-0.4000 0.1667  plane waves:    6345
 k-point 21 :   0.0000-0.2000 0.1667  plane waves:    6352
 k-point 22 :   0.3333-0.2000 0.1667  plane waves:    6350
 k-point 23 :  -0.3333-0.2000 0.1667  plane waves:    6350
 k-point 24 :   0.0000 0.0000 0.3333  plane waves:    6354
 k-point 25 :   0.3333 0.0000 0.3333  plane waves:    6370
 k-point 26 :  -0.3333 0.0000 0.3333  plane waves:    6370
 k-point 27 :   0.0000 0.2000 0.3333  plane waves:    6373
 k-point 28 :   0.3333 0.2000 0.3333  plane waves:    6365
 k-point 29 :  -0.3333 0.2000 0.3333  plane waves:    6365
 k-point 30 :   0.0000 0.4000 0.3333  plane waves:    6345
 k-point 31 :   0.3333 0.4000 0.3333  plane waves:    6357
 k-point 32 :  -0.3333 0.4000 0.3333  plane waves:    6357
 k-point 33 :   0.0000-0.4000 0.3333  plane waves:    6345
 k-point 34 :   0.3333-0.4000 0.3333  plane waves:    6357
 k-point 35 :  -0.3333-0.4000 0.3333  plane waves:    6357
 k-point 36 :   0.0000-0.2000 0.3333  plane waves:    6373
 k-point 37 :   0.3333-0.2000 0.3333  plane waves:    6365
 k-point 38 :  -0.3333-0.2000 0.3333  plane waves:    6365
 k-point 39 :   0.0000 0.0000 0.5000  plane waves:    6372
 k-point 40 :   0.3333 0.0000 0.5000  plane waves:    6374
 k-point 41 :   0.0000 0.2000 0.5000  plane waves:    6368
 k-point 42 :   0.3333 0.2000 0.5000  plane waves:    6380
 k-point 43 :  -0.3333 0.2000 0.5000  plane waves:    6380
 k-point 44 :   0.0000 0.4000 0.5000  plane waves:    6344
 k-point 45 :   0.3333 0.4000 0.5000  plane waves:    6368
 k-point 46 :  -0.3333 0.4000 0.5000  plane waves:    6368

 maximum and minimum number of plane-waves per node :      1324     1229

 maximum number of plane-waves:      6383
 maximum index in each direction: 
   IXMAX=   18   IYMAX=   10   IZMAX=    8
   IXMIN=  -18   IYMIN=  -10   IZMIN=   -8

 WARNING: aliasing errors must be expected set NGX to  74 to avoid them
 WARNING: aliasing errors must be expected set NGY to  42 to avoid them
 WARNING: aliasing errors must be expected set NGZ to  34 to avoid them
 aliasing errors are usually negligible using standard VASP settings
 and one can safely disregard these warnings

 real space projection operators:
  total allocation   :       2241.98 KBytes
  max/ min on nodes  :        454.69        430.72


 parallel 3D FFT for wavefunctions:
    minimum data exchange during FFTs selected (reduces bandwidth)
 parallel 3D FFT for charge:
    minimum data exchange during FFTs selected (reduces bandwidth)


 total amount of memory used by VASP on root node   135761. kBytes
========================================================================

   base      :      30000. kBytes
   nonlr-proj:       1275. kBytes
   fftplans  :       2607. kBytes
   grid      :       5367. kBytes
   one-center:         93. kBytes
   wavefun   :      96419. kBytes
 
     INWAV:  cpu time    0.0000: real time    0.0002
 Broyden mixing: mesh for mixing (old mesh)
   NGX = 35   NGY = 21   NGZ = 17
  (NGX  =108   NGY  = 64   NGZ  = 48)
  gives a total of  12495 points

 initial charge density was supplied:
 charge density of overlapping atoms calculated
 number of electron     151.0000000 magnetization 
 keeping initial charge density in first step


--------------------------------------------------------------------------------------------------------


 Maximum index for non-local projection operator          320
 Maximum index for augmentation-charges          969 (set IRDMAX)


--------------------------------------------------------------------------------------------------------


 First call to EWALD:  gamma=   0.264
 Maximum number of real-space cells 2x 3x 4
 Maximum number of reciprocal cells 4x 3x 2

 FEWALD executed in parallel
    FEWALD:  cpu time    0.0030: real time    0.0030


----------------------------------------- Iteration    1(   1)  ---------------------------------------


    POTLOK:  cpu time    0.0415: real time    0.0415
    SETDIJ:  cpu time    0.0091: real time    0.0092
     EDDAV:  cpu time    8.8556: real time    8.8496
       DOS:  cpu time    0.0158: real time    0.0158
    --------------------------------------------
      LOOP:  cpu time    8.9241: real time    9.1238

 eigenvalue-minimisations  :  8740
 total energy-change (2. order) : 0.1695235E+04  (-0.6227309E+04)
 number of electron     151.0000000 magnetization 
 augmentation part      151.0000000 magnetization 

 Free energy of the ion-electron system (eV)
  ---------------------------------------------------
  alpha Z        PSCENC =       401.59370410
  Ewald energy   TEWEN  =     -7106.15351983
  -Hartree energ DENC   =     -3145.49876078
  -exchange      EXHF   =         0.00000000
  -V(xc)+E(xc)   XCENC  =       463.75009355
  PAW double counting   =      6060.85387329    -6071.66291187
  entropy T*S    EENTRO =         0.00029204
  eigenvalues    EBANDS =      1077.08650112
  atomic energy  EATOM  =     10015.26539877
  Solvation  Ediel_sol  =         0.00000000
  ---------------------------------------------------
  free energy    TOTEN  =      1695.23467040 eV

  energy without entropy =     1695.23437836  energy(sigma->0) =     1695.23459739


--------------------------------------------------------------------------------------------------------




----------------------------------------- Iteration    1(   2)  ---------------------------------------


     EDDAV:  cpu time    9.3202: real time    9.3139
       DOS:  cpu time    0.0182: real time    0.0182
    --------------------------------------------
      LOOP:  cpu time    9.3390: real time    9.5872

 eigenvalue-minimisations  :  9349
 total energy-change (2. order) :-0.1618500E+04  (-0.1485719E+04)
 number of electron     151.0000000 magnetization 
 augmentation part      151.0000000 magnetization 

 Free energy of the ion-electron system (eV)
  ---------------------------------------------------
  alpha Z        PSCENC =       401.59370410
  Ewald energy   TEWEN  =     -7106.15351983
  -Hartree energ DENC   =     -3145.49876078
  -exchange      EXHF   =         0.00000000
  -V(xc)+E(xc)   XCENC  =       463.75009355
  PAW double counting   =      6060.85387329    -6071.66291187
  entropy T*S    EENTRO =         0.00192757
  eigenvalues    EBANDS =      -541.41533875
  atomic energy  EATOM  =     10015.26539877
  Solvation  Ediel_sol  =         0.00000000
  ---------------------------------------------------
  free energy    TOTEN  =        76.73446606 eV

  energy without entropy =       76.73253849  energy(sigma->0) =       76.73398416


--------------------------------------------------------------------------------------------------------




----------------------------------------- Iteration    1(   3)  ---------------------------------------


     EDDAV:  cpu time    9.8276: real time    9.8213
       DOS:  cpu time    0.0195: real time    0.0204
    --------------------------------------------
      LOOP:  cpu time    9.8491: real time    9.9345

 eigenvalue-minimisations  : 10017
 total energy-change (2. order) :-0.2737440E+03  (-0.2644199E+03)
 number of electron     151.0000000 magnetization 
 augmentation part      151.0000000 magnetization 

 Free energy of the ion-electron system (eV)
  ---------------------------------------------------
  alpha Z        PSCENC =       401.59370410
  Ewald energy   TEWEN  =     -7106.15351983
  -Hartree energ DENC   =     -3145.49876078
  -exchange      EXHF   =         0.00000000
  -V(xc)+E(xc)   XCENC  =       463.75009355
  PAW double counting   =      6060.85387329    -6071.66291187
  entropy T*S    EENTRO =         0.01026058
  eigenvalues    EBANDS =      -815.16770988
  atomic energy  EATOM  =     10015.26539877
  Solvation  Ediel_sol  =         0.00000000
  ---------------------------------------------------
  free energy    TOTEN  =      -197.00957206 eV

  energy without entropy =     -197.01983264  energy(sigma->0) =     -197.01213721


--------------------------------------------------------------------------------------------------------




----------------------------------------- Iteration    1(   4)  ---------------------------------------


     EDDAV:  cpu time   11.3316: real time   11.3238
       DOS:  cpu time    0.0204: real time    0.0204
    --------------------------------------------
      LOOP:  cpu time   11.3528: real time   11.4293

 eigenvalue-minimisations  : 11952
 total energy-change (2. order) :-0.1594729E+02  (-0.1556148E+02)
 number of electron     151.0000000 magnetization 
 augmentation part      151.0000000 magnetization 

 Free energy of the ion-electron system (eV)
  ---------------------------------------------------
  alpha Z        PSCENC =       401.59370410
  Ewald energy   TEWEN  =     -7106.15351983
  -Hartree energ DENC   =     -3145.49876078
  -exchange      EXHF   =         0.00000000
  -V(xc)+E(xc)   XCENC  =       463.75009355
  PAW double counting   =      6060.85387329    -6071.66291187
  entropy T*S    EENTRO =         0.00499147
  eigenvalues    EBANDS =      -831.10972998
  atomic energy  EATOM  =     10015.26539877
  Solvation  Ediel_sol  =         0.00000000
  ---------------------------------------------------
  free energy    TOTEN  =      -212.95686127 eV

  energy without entropy =     -212.96185274  energy(sigma->0) =     -212.95810914


--------------------------------------------------------------------------------------------------------




----------------------------------------- Iteration    1(   5)  ---------------------------------------


     EDDAV:  cpu time   12.0797: real time   12.0713
       DOS:  cpu time    0.0205: real time    0.0205
    CHARGE:  cpu time    0.5486: real time    0.5482
    MIXING:  cpu time    0.0014: real time    0.0014
    --------------------------------------------
      LOOP:  cpu time   12.6516: real time   12.7269

 eigenvalue-minimisations  : 12928
 total energy-change (2. order) :-0.6624917E+00  (-0.6582799E+00)
 number of electron     150.9999965 magnetization 
 augmentation part       25.0656088 magnetization 

 Broyden mixing:
  rms(total) = 0.35091E+01    rms(broyden)= 0.35046E+01
  rms(prec ) = 0.45880E+01
  weight for this iteration     100.00

 Free energy of the ion-electron system (eV)
  ---------------------------------------------------
  alpha Z        PSCENC =       401.59370410
  Ewald energy   TEWEN  =     -7106.15351983
  -Hartree energ DENC   =     -3145.49876078
  -exchange      EXHF   =         0.00000000
  -V(xc)+E(xc)   XCENC  =       463.75009355
  PAW double counting   =      6060.85387329    -6071.66291187
  entropy T*S    EENTRO =         0.00304547
  eigenvalues    EBANDS =      -831.77027566
  atomic energy  EATOM  =     10015.26539877
  Solvation  Ediel_sol  =         0.00000000
  ---------------------------------------------------
  free energy    TOTEN  =      -213.61935295 eV

  energy without entropy =     -213.62239842  energy(sigma->0) =     -213.62011431


--------------------------------------------------------------------------------------------------------




----------------------------------------- Iteration    1(   6)  ---------------------------------------


    POTLOK:  cpu time    0.0391: real time    0.0391
    SETDIJ:  cpu time    0.0088: real time    0.0088
     EDDAV:  cpu time   11.3836: real time   11.3757
       DOS:  cpu time    0.0210: real time    0.0210
    CHARGE:  cpu time    0.4972: real time    0.4968
    MIXING:  cpu time    0.0015: real time    0.0015
    --------------------------------------------
      LOOP:  cpu time   11.9520: real time   12.0389

 eigenvalue-minimisations  : 12088
 total energy-change (2. order) : 0.1616601E+02  (-0.1978094E+02)
 number of electron     150.9999998 magnetization 
 augmentation part       28.4956087 magnetization 

 Broyden mixing:
  rms(total) = 0.44902E+01    rms(broyden)= 0.44885E+01
  rms(prec ) = 0.63534E+01
  weight for this iteration     100.00

 eigenvalues of (default mixing * dielectric matrix)
  average eigenvalue GAMMA=   0.4201
  0.4201

 Free energy of the ion-electron system (eV)
  ---------------------------------------------------
  alpha Z        PSCENC =       401.59370410
  Ewald energy   TEWEN  =     -7106.15351983
  -Hartree energ DENC   =     -3286.47309686
  -exchange      EXHF   =         0.00000000
  -V(xc)+E(xc)   XCENC  =       477.05053499
  PAW double counting   =      6581.93315968    -6582.74251550
  entropy T*S    EENTRO =        -0.00446864
  eigenvalues    EBANDS =      -697.92253741
  atomic energy  EATOM  =     10015.26539877
  Solvation  Ediel_sol  =         0.00000000
  ---------------------------------------------------
  free energy    TOTEN  =      -197.45334069 eV

  energy without entropy =     -197.44887205  energy(sigma->0) =     -197.45222353


--------------------------------------------------------------------------------------------------------




----------------------------------------- Iteration    1(   7)  ---------------------------------------


    POTLOK:  cpu time    0.0391: real time    0.0391
    SETDIJ:  cpu time    0.0089: real time    0.0088
     EDDAV:  cpu time   11.0977: real time   11.0901
       DOS:  cpu time    0.0208: real time    0.0207
    CHARGE:  cpu time    0.5508: real time    0.5504
    MIXING:  cpu time    0.0016: real time    0.0016
    --------------------------------------------
      LOOP:  cpu time   11.7196: real time   11.8118

 eigenvalue-minimisations  : 11712
 total energy-change (2. order) :-0.4110928E+02  (-0.3158658E+02)
 number of electron     150.9999915 magnetization 
 augmentation part       25.4954062 magnetization 

 Broyden mixing:
  rms(total) = 0.66281E+01    rms(broyden)= 0.66276E+01
  rms(prec ) = 0.97953E+01
  weight for this iteration     100.00

 eigenvalues of (default mixing * dielectric matrix)
  average eigenvalue GAMMA=   0.3791
  0.6097  0.1486

 Free energy of the ion-electron system (eV)
  ---------------------------------------------------
  alpha Z        PSCENC =       401.59370410
  Ewald energy   TEWEN  =     -7106.15351983
  -Hartree energ DENC   =     -3302.96919514
  -exchange      EXHF   =         0.00000000
  -V(xc)+E(xc)   XCENC  =       477.05557091
  PAW double counting   =      6684.64485443    -6695.30706156
  entropy T*S    EENTRO =        -0.10019000
  eigenvalues    EBANDS =      -712.59217786
  atomic energy  EATOM  =     10015.26539877
  Solvation  Ediel_sol  =         0.00000000
  ---------------------------------------------------
  free energy    TOTEN  =      -238.56261617 eV

  energy without entropy =     -238.46242617  energy(sigma->0) =     -238.53756867


--------------------------------------------------------------------------------------------------------




----------------------------------------- Iteration    1(   8)  ---------------------------------------


    POTLOK:  cpu time    0.0381: real time    0.0385
    SETDIJ:  cpu time    0.0088: real time    0.0088
     EDDAV:  cpu time   11.4374: real time   11.4295
       DOS:  cpu time    0.0208: real time    0.0208
    CHARGE:  cpu time    0.5859: real time    0.5855
    MIXING:  cpu time    0.0017: real time    0.0017
    --------------------------------------------
      LOOP:  cpu time   12.0940: real time   12.1852

 eigenvalue-minimisations  : 12144
 total energy-change (2. order) : 0.2162612E+02  (-0.2056388E+02)
 number of electron     150.9999926 magnetization 
 augmentation part       25.2018106 magnetization 

 Broyden mixing:
  rms(total) = 0.62268E+01    rms(broyden)= 0.62265E+01
  rms(prec ) = 0.10304E+02
  weight for this iteration     100.00

 eigenvalues of (default mixing * dielectric matrix)
  average eigenvalue GAMMA=   0.2987
  0.6504  0.1575  0.0882

 Free energy of the ion-electron system (eV)
  ---------------------------------------------------
  alpha Z        PSCENC =       401.59370410
  Ewald energy   TEWEN  =     -7106.15351983
  -Hartree energ DENC   =     -3310.45125360
  -exchange      EXHF   =         0.00000000
  -V(xc)+E(xc)   XCENC  =       477.35974495
  PAW double counting   =      6746.29191675    -6761.80331992
  entropy T*S    EENTRO =        -0.10022951
  eigenvalues    EBANDS =      -678.93893410
  atomic energy  EATOM  =     10015.26539877
  Solvation  Ediel_sol  =         0.00000000
  ---------------------------------------------------
  free energy    TOTEN  =      -216.93649238 eV

  energy without entropy =     -216.83626287  energy(sigma->0) =     -216.91143501


--------------------------------------------------------------------------------------------------------




----------------------------------------- Iteration    1(   9)  ---------------------------------------


    POTLOK:  cpu time    0.0390: real time    0.0390
    SETDIJ:  cpu time    0.0088: real time    0.0088
     EDDAV:  cpu time   11.9756: real time   11.9674
       DOS:  cpu time    0.0218: real time    0.0218
    CHARGE:  cpu time    0.5998: real time    0.5994
    MIXING:  cpu time    0.0017: real time    0.0017
    --------------------------------------------
      LOOP:  cpu time   12.6478: real time   12.7437

 eigenvalue-minimisations  : 12896
 total energy-change (2. order) : 0.2572742E+02  (-0.9004639E+01)
 number of electron     150.9999919 magnetization 
 augmentation part       24.9563247 magnetization 

 Broyden mixing:
  rms(total) = 0.50047E+01    rms(broyden)= 0.50044E+01
  rms(prec ) = 0.74686E+01
  weight for this iteration     100.00

 eigenvalues of (default mixing * dielectric matrix)
  average eigenvalue GAMMA=   0.2357
  0.6546  0.1180  0.1138  0.0563

 Free energy of the ion-electron system (eV)
  ---------------------------------------------------
  alpha Z        PSCENC =       401.59370410
  Ewald energy   TEWEN  =     -7106.15351983
  -Hartree energ DENC   =     -3312.71566725
  -exchange      EXHF   =         0.00000000
  -V(xc)+E(xc)   XCENC  =       477.54791080
  PAW double counting   =      6767.80410170    -6784.35472295
  entropy T*S    EENTRO =        -0.07503624
  eigenvalues    EBANDS =      -650.12124210
  atomic energy  EATOM  =     10015.26539877
  Solvation  Ediel_sol  =         0.00000000
  ---------------------------------------------------
  free energy    TOTEN  =      -191.20907299 eV

  energy without entropy =     -191.13403676  energy(sigma->0) =     -191.19031393


--------------------------------------------------------------------------------------------------------




----------------------------------------- Iteration    1(  10)  ---------------------------------------


    POTLOK:  cpu time    0.0386: real time    0.0386
    SETDIJ:  cpu time    0.0089: real time    0.0089
     EDDAV:  cpu time   12.3793: real time   12.3708
       DOS:  cpu time    0.0223: real time    0.0223
    CHARGE:  cpu time    0.5889: real time    0.5885
    MIXING:  cpu time    0.0018: real time    0.0018
    --------------------------------------------
      LOOP:  cpu time   13.0407: real time   13.1425

 eigenvalue-minimisations  : 13400
 total energy-change (2. order) : 0.4260646E+01  (-0.3979871E+01)
 number of electron     150.9999982 magnetization 
 augmentation part       24.9014160 magnetization 

 Broyden mixing:
  rms(total) = 0.18999E+01    rms(broyden)= 0.18975E+01
  rms(prec ) = 0.28091E+01
  weight for this iteration     100.00

 eigenvalues of (default mixing * dielectric matrix)
  average eigenvalue GAMMA=   0.3127
  0.8307  0.3853  0.2190  0.0880  0.0406

 Free energy of the ion-electron system (eV)
  ---------------------------------------------------
  alpha Z        PSCENC =       401.59370410
  Ewald energy   TEWEN  =     -7106.15351983
  -Hartree energ DENC   =     -3313.08133270
  -exchange      EXHF   =         0.00000000
  -V(xc)+E(xc)   XCENC  =       477.57551458
  PAW double counting   =      6772.70105748    -6789.25538840
  entropy T*S    EENTRO =        -0.08614610
  eigenvalues    EBANDS =      -645.50771462
  atomic energy  EATOM  =     10015.26539877
  Solvation  Ediel_sol  =         0.00000000
  ---------------------------------------------------
  free energy    TOTEN  =      -186.94842670 eV

  energy without entropy =     -186.86228060  energy(sigma->0) =     -186.92689017


--------------------------------------------------------------------------------------------------------




----------------------------------------- Iteration    1(  11)  ---------------------------------------


    POTLOK:  cpu time    0.0385: real time    0.0385
    SETDIJ:  cpu time    0.0088: real time    0.0088
     EDDAV:  cpu time   13.1866: real time   13.1774
       DOS:  cpu time    0.0221: real time    0.0220
    CHARGE:  cpu time    0.5595: real time    0.5591
    MIXING:  cpu time    0.0021: real time    0.0021
    --------------------------------------------
      LOOP:  cpu time   13.8184: real time   13.9364

 eigenvalue-minimisations  : 14400
 total energy-change (2. order) : 0.1421234E+01  (-0.7656957E+00)
 number of electron     150.9999989 magnetization 
 augmentation part       25.1896232 magnetization 

 Broyden mixing:
  rms(total) = 0.20068E+01    rms(broyden)= 0.20064E+01
  rms(prec ) = 0.30121E+01
  weight for this iteration     100.00

 eigenvalues of (default mixing * dielectric matrix)
  average eigenvalue GAMMA=   0.3718
  1.0679  0.3677  0.3677  0.2988  0.0880  0.0408

 Free energy of the ion-electron system (eV)
  ---------------------------------------------------
  alpha Z        PSCENC =       401.59370410
  Ewald energy   TEWEN  =     -7106.15351983
  -Hartree energ DENC   =     -3312.51289025
  -exchange      EXHF   =         0.00000000
  -V(xc)+E(xc)   XCENC  =       477.91375331
  PAW double counting   =      6845.49990698    -6861.73618173
  entropy T*S    EENTRO =        -0.03655398
  eigenvalues    EBANDS =      -645.36080978
  atomic energy  EATOM  =     10015.26539877
  Solvation  Ediel_sol  =         0.00000000
  ---------------------------------------------------
  free energy    TOTEN  =      -185.52719239 eV

  energy without entropy =     -185.49063842  energy(sigma->0) =     -185.51805390


--------------------------------------------------------------------------------------------------------




----------------------------------------- Iteration    1(  12)  ---------------------------------------


    POTLOK:  cpu time    0.0386: real time    0.0386
    SETDIJ:  cpu time    0.0088: real time    0.0088
     EDDAV:  cpu time   11.7997: real time   11.7916
       DOS:  cpu time    0.0219: real time    0.0219
    CHARGE:  cpu time    0.5505: real time    0.5502
    MIXING:  cpu time    0.0021: real time    0.0021
    --------------------------------------------
      LOOP:  cpu time   12.4226: real time   12.5412

 eigenvalue-minimisations  : 12640
 total energy-change (2. order) :-0.2891565E+00  (-0.3213411E+01)
 number of electron     150.9999981 magnetization 
 augmentation part       25.4295263 magnetization 

 Broyden mixing:
  rms(total) = 0.22524E+01    rms(broyden)= 0.22520E+01
  rms(prec ) = 0.34244E+01
  weight for this iteration     100.00

 eigenvalues of (default mixing * dielectric matrix)
  average eigenvalue GAMMA=   0.5021
  1.5086  0.9756  0.4756  0.2132  0.2132  0.0878  0.0407

 Free energy of the ion-electron system (eV)
  ---------------------------------------------------
  alpha Z        PSCENC =       401.59370410
  Ewald energy   TEWEN  =     -7106.15351983
  -Hartree energ DENC   =     -3315.23788254
  -exchange      EXHF   =         0.00000000
  -V(xc)+E(xc)   XCENC  =       478.39210072
  PAW double counting   =      6884.63511893    -6900.91903795
  entropy T*S    EENTRO =        -0.02914466
  eigenvalues    EBANDS =      -643.36308642
  atomic energy  EATOM  =     10015.26539877
  Solvation  Ediel_sol  =         0.00000000
  ---------------------------------------------------
  free energy    TOTEN  =      -185.81634887 eV

  energy without entropy =     -185.78720421  energy(sigma->0) =     -185.80906271


--------------------------------------------------------------------------------------------------------




----------------------------------------- Iteration    1(  13)  ---------------------------------------


    POTLOK:  cpu time    0.0386: real time    0.0390
    SETDIJ:  cpu time    0.0088: real time    0.0088
     EDDAV:  cpu time   11.9489: real time   11.9406
       DOS:  cpu time    0.0212: real time    0.0212
    CHARGE:  cpu time    0.5165: real time    0.5161
    MIXING:  cpu time    0.0023: real time    0.0023
    --------------------------------------------
      LOOP:  cpu time   12.5374: real time   12.6287

 eigenvalue-minimisations  : 12816
 total energy-change (2. order) : 0.8002379E+00  (-0.5946972E+00)
 number of electron     150.9999995 magnetization 
 augmentation part       25.5828910 magnetization 

 Broyden mixing:
  rms(total) = 0.49262E+00    rms(broyden)= 0.48966E+00
  rms(prec ) = 0.56069E+00
  weight for this iteration     100.00

 eigenvalues of (default mixing * dielectric matrix)
  average eigenvalue GAMMA=   0.5494
  1.9578  0.9490  0.5213  0.4075  0.2156  0.2156  0.0879  0.0407

 Free energy of the ion-electron system (eV)
  ---------------------------------------------------
  alpha Z        PSCENC =       401.59370410
  Ewald energy   TEWEN  =     -7106.15351983
  -Hartree energ DENC   =     -3316.00462752
  -exchange      EXHF   =         0.00000000
  -V(xc)+E(xc)   XCENC  =       478.75161807
  PAW double counting   =      6965.20958029    -6981.15745061
  entropy T*S    EENTRO =        -0.00563297
  eigenvalues    EBANDS =      -642.51518132
  atomic energy  EATOM  =     10015.26539877
  Solvation  Ediel_sol  =         0.00000000
  ---------------------------------------------------
  free energy    TOTEN  =      -185.01611102 eV

  energy without entropy =     -185.01047805  energy(sigma->0) =     -185.01470278


--------------------------------------------------------------------------------------------------------




----------------------------------------- Iteration    1(  14)  ---------------------------------------


    POTLOK:  cpu time    0.0390: real time    0.0390
    SETDIJ:  cpu time    0.0089: real time    0.0089
     EDDAV:  cpu time   11.8456: real time   11.8375
       DOS:  cpu time    0.0202: real time    0.0211
    CHARGE:  cpu time    0.5200: real time    0.5196
    MIXING:  cpu time    0.0024: real time    0.0024
    --------------------------------------------
      LOOP:  cpu time   12.4377: real time   12.5627

 eigenvalue-minimisations  : 12680
 total energy-change (2. order) : 0.7759985E-01  (-0.8692866E-01)
 number of electron     150.9999996 magnetization 
 augmentation part       25.5958507 magnetization 

 Broyden mixing:
  rms(total) = 0.65048E+00    rms(broyden)= 0.65018E+00
  rms(prec ) = 0.93621E+00
  weight for this iteration     100.00

 eigenvalues of (default mixing * dielectric matrix)
  average eigenvalue GAMMA=   0.6204
  2.3185  0.9827  0.6221  0.6221  0.4796  0.2148  0.2148  0.0879  0.0407

 Free energy of the ion-electron system (eV)
  ---------------------------------------------------
  alpha Z        PSCENC =       401.59370410
  Ewald energy   TEWEN  =     -7106.15351983
  -Hartree energ DENC   =     -3317.13906769
  -exchange      EXHF   =         0.00000000
  -V(xc)+E(xc)   XCENC  =       478.98982881
  PAW double counting   =      6996.83975188    -7013.99700438
  entropy T*S    EENTRO =         0.03234324
  eigenvalues    EBANDS =      -640.36994608
  atomic energy  EATOM  =     10015.26539877
  Solvation  Ediel_sol  =         0.00000000
  ---------------------------------------------------
  free energy    TOTEN  =      -184.93851117 eV

  energy without entropy =     -184.97085441  energy(sigma->0) =     -184.94659698


--------------------------------------------------------------------------------------------------------




----------------------------------------- Iteration    1(  15)  ---------------------------------------


    POTLOK:  cpu time    0.0381: real time    0.0385
    SETDIJ:  cpu time    0.0088: real time    0.0088
     EDDAV:  cpu time   11.9780: real time   11.9698
       DOS:  cpu time    0.0215: real time    0.0215
    CHARGE:  cpu time    0.5302: real time    0.5298
    MIXING:  cpu time    0.0024: real time    0.0024
    --------------------------------------------
      LOOP:  cpu time   12.5803: real time   12.6769

 eigenvalue-minimisations  : 12848
 total energy-change (2. order) :-0.1121539E+00  (-0.2583875E-01)
 number of electron     150.9999991 magnetization 
 augmentation part       25.5642995 magnetization 

 Broyden mixing:
  rms(total) = 0.78884E+00    rms(broyden)= 0.78870E+00
  rms(prec ) = 0.11565E+01
  weight for this iteration     100.00

 eigenvalues of (default mixing * dielectric matrix)
  average eigenvalue GAMMA=   0.6738
  2.4243  1.0239  1.0239  0.7895  0.5130  0.4049  0.2147  0.2147  0.0879  0.0407

 Free energy of the ion-electron system (eV)
  ---------------------------------------------------
  alpha Z        PSCENC =       401.59370410
  Ewald energy   TEWEN  =     -7106.15351983
  -Hartree energ DENC   =     -3318.09428090
  -exchange      EXHF   =         0.00000000
  -V(xc)+E(xc)   XCENC  =       479.14275395
  PAW double counting   =      7018.39508337    -7035.55775338
  entropy T*S    EENTRO =         0.02522913
  eigenvalues    EBANDS =      -639.66728034
  atomic energy  EATOM  =     10015.26539877
  Solvation  Ediel_sol  =         0.00000000
  ---------------------------------------------------
  free energy    TOTEN  =      -185.05066511 eV

  energy without entropy =     -185.07589424  energy(sigma->0) =     -185.05697239


--------------------------------------------------------------------------------------------------------




----------------------------------------- Iteration    1(  16)  ---------------------------------------


    POTLOK:  cpu time    0.0384: real time    0.0384
    SETDIJ:  cpu time    0.0088: real time    0.0088
     EDDAV:  cpu time   12.3388: real time   12.3304
       DOS:  cpu time    0.0212: real time    0.0212
    CHARGE:  cpu time    0.5398: real time    0.5394
    MIXING:  cpu time    0.0027: real time    0.0027
    --------------------------------------------
      LOOP:  cpu time   12.9506: real time   13.0583

 eigenvalue-minimisations  : 13264
 total energy-change (2. order) : 0.5138058E-01  (-0.8790957E-01)
 number of electron     150.9999997 magnetization 
 augmentation part       25.5096355 magnetization 

 Broyden mixing:
  rms(total) = 0.50872E+00    rms(broyden)= 0.50836E+00
  rms(prec ) = 0.78291E+00
  weight for this iteration     100.00

 eigenvalues of (default mixing * dielectric matrix)
  average eigenvalue GAMMA=   0.6828
  2.5125  1.2405  1.2405  0.6299  0.6299  0.0407  0.0879  0.2150  0.2150  0.3901
  0.3090

 Free energy of the ion-electron system (eV)
  ---------------------------------------------------
  alpha Z        PSCENC =       401.59370410
  Ewald energy   TEWEN  =     -7106.15351983
  -Hartree energ DENC   =     -3319.35384080
  -exchange      EXHF   =         0.00000000
  -V(xc)+E(xc)   XCENC  =       479.25446866
  PAW double counting   =      7025.63487592    -7042.73992825
  entropy T*S    EENTRO =         0.04242128
  eigenvalues    EBANDS =      -638.54286439
  atomic energy  EATOM  =     10015.26539877
  Solvation  Ediel_sol  =         0.00000000
  ---------------------------------------------------
  free energy    TOTEN  =      -184.99928454 eV

  energy without entropy =     -185.04170582  energy(sigma->0) =     -185.00988986


--------------------------------------------------------------------------------------------------------




----------------------------------------- Iteration    1(  17)  ---------------------------------------


    POTLOK:  cpu time    0.0384: real time    0.0384
    SETDIJ:  cpu time    0.0088: real time    0.0088
     EDDAV:  cpu time   11.9696: real time   11.9613
       DOS:  cpu time    0.0215: real time    0.0215
    CHARGE:  cpu time    0.5428: real time    0.5424
    MIXING:  cpu time    0.0030: real time    0.0030
    --------------------------------------------
      LOOP:  cpu time   12.5850: real time   12.7057

 eigenvalue-minimisations  : 12776
 total energy-change (2. order) :-0.4854263E-01  (-0.1124075E-01)
 number of electron     150.9999996 magnetization 
 augmentation part       25.5013689 magnetization 

 Broyden mixing:
  rms(total) = 0.59325E+00    rms(broyden)= 0.59320E+00
  rms(prec ) = 0.91239E+00
  weight for this iteration     100.00

 eigenvalues of (default mixing * dielectric matrix)
  average eigenvalue GAMMA=   0.6903
  2.5882  1.2888  1.2888  0.6170  0.6170  0.4977  0.4977  0.0407  0.2148  0.2148
  0.0879  0.3299

 Free energy of the ion-electron system (eV)
  ---------------------------------------------------
  alpha Z        PSCENC =       401.59370410
  Ewald energy   TEWEN  =     -7106.15351983
  -Hartree energ DENC   =     -3319.86536571
  -exchange      EXHF   =         0.00000000
  -V(xc)+E(xc)   XCENC  =       479.33402153
  PAW double counting   =      7027.88389523    -7045.06537489
  entropy T*S    EENTRO =         0.04129472
  eigenvalues    EBANDS =      -638.08188110
  atomic energy  EATOM  =     10015.26539877
  Solvation  Ediel_sol  =         0.00000000
  ---------------------------------------------------
  free energy    TOTEN  =      -185.04782717 eV

  energy without entropy =     -185.08912189  energy(sigma->0) =     -185.05815085


--------------------------------------------------------------------------------------------------------




----------------------------------------- Iteration    1(  18)  ---------------------------------------


    POTLOK:  cpu time    0.0387: real time    0.0390
    SETDIJ:  cpu time    0.0089: real time    0.0089
     EDDAV:  cpu time   12.7552: real time   12.7463
       DOS:  cpu time    0.0215: real time    0.0215
    CHARGE:  cpu time    0.5414: real time    0.5410
    MIXING:  cpu time    0.0032: real time    0.0032
    --------------------------------------------
      LOOP:  cpu time   13.3700: real time   14.3192

 eigenvalue-minimisations  : 13768
 total energy-change (2. order) : 0.1433100E-01  (-0.4205846E-02)
 number of electron     150.9999996 magnetization 
 augmentation part       25.5007611 magnetization 

 Broyden mixing:
  rms(total) = 0.51693E+00    rms(broyden)= 0.51691E+00
  rms(prec ) = 0.80358E+00
  weight for this iteration     100.00

 eigenvalues of (default mixing * dielectric matrix)
  average eigenvalue GAMMA=   0.7158
  2.6225  1.3569  1.3569  0.8191  0.6974  0.6974  0.5202  0.0407  0.0879  0.2148
  0.2148  0.3944  0.2828

 Free energy of the ion-electron system (eV)
  ---------------------------------------------------
  alpha Z        PSCENC =       401.59370410
  Ewald energy   TEWEN  =     -7106.15351983
  -Hartree energ DENC   =     -3319.97813891
  -exchange      EXHF   =         0.00000000
  -V(xc)+E(xc)   XCENC  =       479.37028661
  PAW double counting   =      7028.10656549    -7045.07104770
  entropy T*S    EENTRO =         0.04364848
  eigenvalues    EBANDS =      -638.21039318
  atomic energy  EATOM  =     10015.26539877
  Solvation  Ediel_sol  =         0.00000000
  ---------------------------------------------------
  free energy    TOTEN  =      -185.03349616 eV

  energy without entropy =     -185.07714465  energy(sigma->0) =     -185.04440829


--------------------------------------------------------------------------------------------------------




----------------------------------------- Iteration    1(  19)  ---------------------------------------


    POTLOK:  cpu time    0.0390: real time    0.0390
    SETDIJ:  cpu time    0.0089: real time    0.0089
     EDDAV:  cpu time   12.6513: real time   12.6425
       DOS:  cpu time    0.0214: real time    0.0214
    CHARGE:  cpu time    0.5396: real time    0.5392
    MIXING:  cpu time    0.0032: real time    0.0032
    --------------------------------------------
      LOOP:  cpu time   13.2642: real time   13.3543

 eigenvalue-minimisations  : 13624
 total energy-change (2. order) : 0.4267036E-01  (-0.2138601E-02)
 number of electron     150.9999995 magnetization 
 augmentation part       25.5045296 magnetization 

 Broyden mixing:
  rms(total) = 0.42943E+00    rms(broyden)= 0.42942E+00
  rms(prec ) = 0.66226E+00
  weight for this iteration     100.00

 eigenvalues of (default mixing * dielectric matrix)
  average eigenvalue GAMMA=   0.7407
  2.6008  1.4624  1.4624  0.9104  0.9104  0.7008  0.5420  0.4624  0.4624  0.2148
  0.2148  0.0879  0.0407  0.2972

 Free energy of the ion-electron system (eV)
  ---------------------------------------------------
  alpha Z        PSCENC =       401.59370410
  Ewald energy   TEWEN  =     -7106.15351983
  -Hartree energ DENC   =     -3320.01491916
  -exchange      EXHF   =         0.00000000
  -V(xc)+E(xc)   XCENC  =       479.40340695
  PAW double counting   =      7027.19015330    -7044.04264677
  entropy T*S    EENTRO =         0.02353865
  eigenvalues    EBANDS =      -638.25594183
  atomic energy  EATOM  =     10015.26539877
  Solvation  Ediel_sol  =         0.00000000
  ---------------------------------------------------
  free energy    TOTEN  =      -184.99082581 eV

  energy without entropy =     -185.01436446  energy(sigma->0) =     -184.99671047


[...]
     78       4.0550     -0.00363
     79       4.1979      0.00594
     80       4.2357      0.00345
     81       4.5624      0.00000
     82       4.6411      0.00000
     83       4.7395      0.00000
     84       4.8314      0.00000
     85       9.0476      0.00000
     86       9.3996      0.00000
     87       9.4678      0.00000
     88       9.6433      0.00000
     89       9.8257      0.00000
     90       9.9648      0.00000
     91      10.0686      0.00000
     92      10.1629      0.00000
     93      10.3189      0.00000
     94      10.5752      0.00000
     95      10.6531      0.00000

 k-point    46 :      -0.3333    0.4000    0.5000
  band No.  band energies     occupation 
      1     -18.8128      2.00000
      2     -18.7232      2.00000
      3     -18.5650      2.00000
      4     -18.3079      2.00000
      5     -16.7650      2.00000
      6     -16.7038      2.00000
      7     -16.5859      2.00000
      8     -16.4258      2.00000
      9     -16.3356      2.00000
     10     -16.2357      2.00000
     11     -16.2140      2.00000
     12     -16.1849      2.00000
     13     -16.1324      2.00000
     14     -16.0320      2.00000
     15     -15.9688      2.00000
     16     -15.7388      2.00000
     17      -6.1318      2.00000
     18      -6.0548      2.00000
     19      -6.0234      2.00000
     20      -5.8634      2.00000
     21      -3.9354      2.00000
     22      -3.9015      2.00000
     23      -3.8567      2.00000
     24      -3.8230      2.00000
     25      -3.7457      2.00000
     26      -3.6820      2.00000
     27      -3.6540      2.00000
     28      -3.5474      2.00000
     29      -3.3333      2.00000
     30      -3.2687      2.00000
     31      -3.1168      2.00000
     32      -2.9785      2.00000
     33      -2.5590      2.00000
     34      -2.5022      2.00000
     35      -2.4065      2.00000
     36      -2.3262      2.00000
     37      -1.9652      2.00000
     38      -1.8345      2.00000
     39      -1.6394      2.00000
     40      -1.4578      2.00000
     41      -1.3962      2.00000
     42      -1.3185      2.00000
     43      -1.2622      2.00000
     44      -1.1507      2.00000
     45      -1.0004      2.00000
     46      -0.9715      2.00000
     47      -0.9409      2.00000
     48      -0.8359      2.00000
     49      -0.6222      2.00000
     50      -0.5442      2.00000
     51      -0.4270      2.00000
     52      -0.2276      2.00000
     53      -0.0643      2.00000
     54      -0.0232      2.00000
     55       0.0186      2.00000
     56       0.2412      2.00000
     57       0.3070      2.00000
     58       0.3573      2.00000
     59       0.4650      2.00000
     60       0.6800      2.00000
     61       0.7344      2.00000
     62       0.8121      2.00000
     63       1.0217      2.00000
     64       1.1216      2.00000
     65       3.3074      1.99034
     66       3.3320      1.99038
     67       3.3546      1.99256
     68       3.3810      1.99902
     69       3.4234      2.02153
     70       3.4428      2.03707
     71       3.4677      2.06023
     72       3.4918      2.08265
     73       3.5425      2.10127
     74       3.5632      2.08328
     75       3.6362      1.80229
     76       3.6581      1.64021
     77       3.9931     -0.04766
     78       4.0577     -0.00245
     79       4.1833      0.00704
     80       4.2478      0.00281
     81       4.5706      0.00000
     82       4.6315      0.00000
     83       4.7430      0.00000
     84       4.8301      0.00000
     85       9.0685      0.00000
     86       9.3746      0.00000
     87       9.4583      0.00000
     88       9.6482      0.00000
     89       9.8072      0.00000
     90       9.9600      0.00000
     91      10.0793      0.00000
     92      10.1816      0.00000
     93      10.3621      0.00000
     94      10.5406      0.00000
     95      10.5876      0.00000


--------------------------------------------------------------------------------------------------------


 soft charge-density along one line, spin component           1
         0         1         2         3         4         5         6         7         8         9
 total charge-density along one line
 
 pseudopotential strength for first ion, spin component:           1
  1.173  -0.045   0.001  -0.001  -0.002
 -0.045  -0.052  -0.000   0.000   0.000
  0.001  -0.000  -0.353  -0.000  -0.001
 -0.001   0.000  -0.000  -0.353  -0.001
 -0.002   0.000  -0.001  -0.001  -0.353
 total augmentation occupancy for first ion, spin component:           1
  0.607  -0.074  -0.051   0.013   0.031
 -0.074   0.010   0.007  -0.002  -0.005
 -0.051   0.007   0.045  -0.019  -0.027
  0.013  -0.002  -0.019   0.094  -0.010
  0.031  -0.005  -0.027  -0.010   0.065


------------------------ aborting loop because EDIFF is reached ----------------------------------------


    CHARGE:  cpu time    0.5272: real time    0.5268
    FORLOC:  cpu time    0.0143: real time    0.0143
    FORNL :  cpu time    2.1669: real time    2.1654
    STRESS:  cpu time    6.5902: real time    6.5855
    FORCOR:  cpu time    0.0472: real time    0.0471
    FORHAR:  cpu time    0.0212: real time    0.0212
    MIXING:  cpu time    0.0098: real time    0.0098
    OFIELD:  cpu time    0.0000: real time    0.0000

  FORCE on cell =-STRESS in cart. coord.  units (eV):
  Direction    XX          YY          ZZ          XY          YZ          ZX
  --------------------------------------------------------------------------------------
  Alpha Z   401.59370   401.59370   401.59370
  Ewald   -2474.12393 -2297.99788 -2322.42469   -84.21885   -27.17056   -63.81086
  Hartree   967.66171  1284.04514  1081.36925   -33.97356   -10.16596   -31.92462
  E(xc)    -715.24345  -714.97271  -715.62808    -0.06411    -0.06523     0.03319
  Local    -741.89240 -1252.89511  -994.66134   114.00389    34.95269    93.43128
  n-local  -306.96396  -319.09120  -307.24833    -1.07057    -0.16640     0.93582
  augment   222.38814   221.75676   223.58337     0.14250     0.45920    -0.88481
  Kinetic  2622.77945  2651.19026  2616.66723     5.48175     2.14363     2.64425
  Fock        0.00000     0.00000     0.00000     0.00000     0.00000     0.00000
  -------------------------------------------------------------------------------------
  Total     -23.80072   -26.37103   -16.74889     0.30104    -0.01263     0.42425
  in kB    -126.14092  -139.76325   -88.76706     1.59547    -0.06692     2.24847
  external pressure =     -118.22 kB  Pullay stress =        0.00 kB


 VOLUME and BASIS-vectors are now :
 -----------------------------------------------------------------------------
  energy-cutoff  :      441.00
  volume of cell :      302.30
      direct lattice vectors                 reciprocal lattice vectors
    10.450668000  0.000000000  0.000000000     0.095687663  0.000000000  0.000000000
     0.000000000  6.087351000  0.000000000     0.000000000  0.164275068  0.000000000
     0.000000000  0.000000000  4.751955000     0.000000000  0.000000000  0.210439703

  length of vectors
    10.450668000  6.087351000  4.751955000     0.095687663  0.164275068  0.210439703


 FORCES acting on ions
    electron-ion (+dipol)            ewald-force                    non-local-force                 convergence-correction
 -----------------------------------------------------------------------------------------------
   0.447E+01 -.169E+01 -.440E+00   -.414E+01 0.134E+01 0.613E+00   -.403E+00 0.675E+00 -.172E+00   0.771E-05 -.869E-04 -.839E-06
   -.138E+01 0.634E-01 0.512E-01   0.134E+01 -.173E-01 -.345E-01   0.256E-01 -.531E-01 -.209E-01   -.622E-05 -.636E-04 -.144E-04
   -.111E+01 0.727E-01 0.115E+00   0.108E+01 -.111E+00 -.898E-01   0.190E-01 0.320E-01 -.228E-01   -.108E-03 0.637E-04 0.272E-04
   0.121E+03 0.443E+01 -.930E+02   -.126E+03 -.553E+01 0.124E+03   0.544E+01 0.113E+01 -.313E+02   0.705E-03 -.248E-02 0.468E-02
   -.349E+02 0.106E+03 -.459E+02   0.249E+02 -.127E+03 0.582E+02   0.101E+02 0.205E+02 -.123E+02   0.226E-02 -.112E-02 0.115E-02
   -.388E+02 -.100E+03 -.408E+02   0.288E+02 0.123E+03 0.536E+02   0.997E+01 -.223E+02 -.128E+02   0.225E-02 0.355E-02 -.228E-04
   -.118E+03 -.226E+01 0.873E+02   0.126E+03 0.139E+01 -.120E+03   -.850E+01 0.822E+00 0.331E+02   0.253E-02 0.516E-02 -.842E-03
   -.560E+02 -.829E+01 -.101E+03   0.862E+02 0.822E+01 0.117E+03   -.302E+02 0.543E-01 -.160E+02   -.263E-02 0.292E-02 0.749E-03
   -.103E+03 0.400E+01 -.925E+02   0.108E+03 -.404E+01 0.124E+03   -.507E+01 0.257E-01 -.317E+02   -.266E-02 0.484E-03 0.980E-03
   0.381E+02 0.980E+02 0.471E+02   -.268E+02 -.121E+03 -.608E+02   -.113E+02 0.230E+02 0.138E+02   -.180E-02 -.131E-02 -.286E-02
   0.802E+01 -.104E+03 -.481E+02   0.555E+01 0.129E+03 0.618E+02   -.136E+02 -.250E+02 -.136E+02   0.131E-02 0.211E-02 0.131E-02
   -.919E+01 0.980E+02 0.458E+02   -.467E+01 -.123E+03 -.595E+02   0.139E+02 0.245E+02 0.137E+02   -.151E-02 0.315E-02 0.219E-03
   -.984E+01 -.921E+02 0.460E+02   -.341E+01 0.116E+03 -.599E+02   0.133E+02 -.238E+02 0.139E+02   -.238E-02 0.131E-02 0.361E-03
   0.760E+02 0.102E+02 0.958E+02   -.106E+03 -.113E+02 -.107E+03   0.299E+02 0.115E+01 0.113E+02   0.327E-02 -.282E-02 0.370E-02
   0.724E+02 -.313E+01 -.932E+02   -.102E+03 0.332E+01 0.106E+03   0.295E+02 -.212E+00 -.128E+02   -.649E-03 0.967E-04 0.683E-04
   -.889E+02 0.344E+01 0.915E+02   0.119E+03 -.340E+01 -.104E+03   -.301E+02 -.516E-01 0.121E+02   -.380E-05 0.883E-03 -.113E-02
   0.960E+02 -.502E+01 0.930E+02   -.102E+03 0.527E+01 -.125E+03   0.553E+01 -.275E+00 0.317E+02   -.221E-03 0.207E-02 -.121E-02
   0.788E+01 0.987E+02 -.450E+02   0.491E+01 -.123E+03 0.584E+02   -.128E+02 0.243E+02 -.134E+02   0.992E-03 0.309E-02 0.634E-03
   0.331E+02 -.109E+03 0.453E+02   -.226E+02 0.133E+03 -.587E+02   -.105E+02 -.239E+02 0.135E+02   -.301E-02 0.610E-03 -.241E-02
   0.500E+02 0.774E+01 -.121E+02   -.517E+02 -.735E+01 0.140E+02   0.172E+01 -.356E+00 -.192E+01   -.207E-02 -.139E-02 -.121E-02
   -.306E+02 0.256E+01 -.212E+02   0.318E+02 -.271E+01 0.217E+02   -.118E+01 0.138E+00 -.453E+00   -.204E-02 0.122E-02 -.265E-03
   0.265E+02 -.215E+01 0.221E+02   -.275E+02 0.236E+01 -.226E+02   0.989E+00 -.222E+00 0.510E+00   0.669E-04 0.564E-03 -.932E-04
   -.404E+02 -.822E+01 0.462E+01   0.440E+02 0.837E+01 -.874E+01   -.355E+01 -.174E+00 0.415E+01   0.118E-02 0.120E-02 0.350E-03
   -.757E+02 -.763E+01 -.195E+02   0.758E+02 0.686E+01 0.203E+02   -.170E+00 0.733E+00 -.789E+00   0.156E-02 -.110E-02 0.977E-03
   0.863E+02 0.446E+01 -.248E+02   -.836E+02 -.383E+01 0.260E+02   -.278E+01 -.644E+00 -.119E+01   0.315E-02 -.552E-03 -.966E-03
   -.748E+02 -.371E+01 0.362E+02   0.730E+02 0.348E+01 -.368E+02   0.181E+01 0.234E+00 0.594E+00   -.969E-03 -.312E-02 0.206E-03
   0.696E+02 0.104E+02 0.223E+02   -.712E+02 -.100E+02 -.230E+02   0.163E+01 -.442E+00 0.680E+00   0.250E-02 -.571E-03 -.943E-03
 -----------------------------------------------------------------------------------------------
   0.637E+01 0.138E+00 -.621E+00   0.114E-12 0.906E-13 0.959E-13   -.637E+01 -.129E+00 0.616E+00   0.172E-02 0.139E-01 0.344E-02
 
 
 POSITION                                       TOTAL-FORCE (eV/Angst)
 -----------------------------------------------------------------------------------
     -0.27954      2.31505     -0.15638        -0.071930      0.326797      0.001159
      5.22010      3.04941      2.37638        -0.005890     -0.007864     -0.004104
      5.21922     -0.01119      2.37832        -0.011256     -0.007360      0.002541
      1.22508      1.52654      3.59492        -0.035905      0.023086      0.024127
      8.67684      3.30702      3.48048         0.019539     -0.022107      0.010025
      8.58827      5.75448      3.41338        -0.013299     -0.021882     -0.012258
      9.19769      4.50915      1.19377        -0.009952     -0.044130     -0.027026
      0.44416      4.53614      3.07608        -0.052646     -0.013934     -0.014424
      4.09119      4.55871      1.18304         0.023650     -0.012344     -0.003830
      1.91735      0.28882      1.38177         0.021465     -0.010953      0.020390
      7.04423      2.74556      1.05158        -0.004054     -0.025068      0.006368
      3.40778      3.31879      3.71005         0.012089     -0.010224      0.001666
      3.40696      5.80408      3.71487         0.008987     -0.005830      0.006875
     10.07384      1.52056      1.64132        -0.006617      0.014824     -0.045499
      4.83063      1.51183      0.89381        -0.003347     -0.016877     -0.003182
      5.61615      4.56374      3.85985         0.016568     -0.010935      0.001627
      6.35614      1.51293      3.57242         0.008074     -0.022731      0.002185
      7.04645      0.26929      1.03998         0.000203     -0.024940      0.002971
      1.87440      2.71216      1.33310         0.025484     -0.021961      0.022500
      1.11300      1.49446      2.05499         0.005954      0.031018     -0.032891
      4.14328      4.55806      4.38215         0.014144     -0.008459      0.016527
      6.30407      1.51357      0.37303        -0.004535     -0.015538     -0.000457
      9.40853      4.55080      2.71260         0.081455     -0.025549      0.039352
      8.10027      1.47578      2.48436         0.003206     -0.037060     -0.018711
      7.66300      4.57912      0.02267        -0.013319     -0.010394      0.003610
      2.83798      1.48931      4.74278        -0.023605     -0.000997      0.006769
      2.33160      4.56988      2.26412         0.015537     -0.018590     -0.006311
 -----------------------------------------------------------------------------------
    total drift:                                0.001373      0.023807     -0.001361


--------------------------------------------------------------------------------------------------------



  FREE ENERGIE OF THE ION-ELECTRON SYSTEM (eV)
  ---------------------------------------------------
  free  energy   TOTEN  =      -185.17500742 eV

  energy  without entropy=     -185.17421116  energy(sigma->0) =     -185.17480836
 
 d Force = 0.1455897E-02[ 0.831E-03, 0.208E-02]  d Energy = 0.1447822E-02 0.808E-05
 d Force =-0.9706068E-03[-0.566E-02, 0.371E-02]  d Ewald  =-0.9739773E-03 0.337E-05


--------------------------------------------------------------------------------------------------------


    POTLOK:  cpu time    0.0480: real time    0.0568


--------------------------------------------------------------------------------------------------------


  energy of chain is (eV)         0.000000 for this image         0.000000
  tangential force (eV/A)         0.317691
  left and right image   0.827307  0.821767 A
 TANGENT                                        CHAIN-FORCE (eV/Angst)
 -----------------------------------------------------------------------------------
      0.26260      0.93577      0.14693        -0.083427     -0.297285     -0.046679
      0.00526     -0.00681     -0.00173        -0.001670      0.002165      0.000548
      0.00526      0.00687     -0.00173        -0.001672     -0.002183      0.000551
     -0.02881      0.04087     -0.00965         0.009154     -0.012983      0.003065
      0.00702      0.00167      0.00447        -0.002231     -0.000531     -0.001420
     -0.03645     -0.01434     -0.05375         0.011580      0.004557      0.017077
      0.04021     -0.04047     -0.02020        -0.012776      0.012855      0.006416
     -0.01666     -0.03342      0.04003         0.005293      0.010617     -0.012716
     -0.00821      0.00444     -0.00277         0.002609     -0.001412      0.000881
     -0.02857      0.00378      0.01075         0.009078     -0.001202     -0.003416
      0.00027     -0.00243      0.00545        -0.000086      0.000773     -0.001730
     -0.00614      0.00672     -0.01016         0.001949     -0.002135      0.003229
     -0.01474      0.00178     -0.00204         0.004684     -0.000566      0.000649
     -0.04042      0.03366     -0.02511         0.012841     -0.010694      0.007976
      0.00529     -0.00810     -0.00444        -0.001681      0.002572      0.001412
     -0.00556      0.00818      0.00031         0.001765     -0.002598     -0.000099
      0.01241     -0.00429     -0.00036        -0.003941      0.001364      0.000115
      0.00888     -0.00572     -0.00260        -0.002820      0.001816      0.000827
     -0.07239      0.00980     -0.04759         0.022997     -0.003114      0.015117
     -0.05037      0.00375     -0.00695         0.016002     -0.001192      0.002208
     -0.00610      0.00187     -0.00262         0.001938     -0.000594      0.000834
      0.00684     -0.00172     -0.00075        -0.002173      0.000545      0.000239
     -0.01323     -0.00342     -0.00822         0.004203      0.001087      0.002610
      0.01850     -0.02238     -0.00763        -0.005879      0.007111      0.002425
     -0.00612      0.01832     -0.00341         0.001946     -0.005819      0.001083
     -0.04060     -0.01816     -0.00692         0.012900      0.005769      0.002200
      0.00184      0.02272      0.01071        -0.000583     -0.007217     -0.003402
 -----------------------------------------------------------------------------------
 CHAIN + TOTAL  (eV/Angst)
 ----------------------------------------------
     -0.15536      0.02951     -0.04552
     -0.00756     -0.00570     -0.00356
     -0.01293     -0.00954      0.00309
     -0.02675      0.01010      0.02719
      0.01731     -0.02264      0.00860
     -0.00172     -0.01733      0.00482
     -0.02273     -0.03127     -0.02061
     -0.04735     -0.00332     -0.02714
      0.02626     -0.01376     -0.00295
      0.03054     -0.01215      0.01697
     -0.00414     -0.02430      0.00464
      0.01404     -0.01236      0.00490
      0.01367     -0.00640      0.00752
      0.00622      0.00413     -0.03752
     -0.00503     -0.01430     -0.00177
      0.01833     -0.01353      0.00153
      0.00413     -0.02137      0.00230
     -0.00262     -0.02312      0.00380
      0.04848     -0.02508      0.03762
      0.02196      0.02983     -0.03068
      0.01608     -0.00905      0.01736
     -0.00671     -0.01499     -0.00022
      0.08566     -0.02446      0.04196
     -0.00267     -0.02995     -0.01629
     -0.01137     -0.01621      0.00469
     -0.01071      0.00477      0.00897
      0.01495     -0.02581     -0.00971
 ----------------------------------------------
 Quasi-Newton relaxation of ions (Broydens 2nd method)
  g(Force)  = 0.111E-01   g(Stress)= 0.000E+00

 retain information from N=  3 steps
 eigenvalues of (default step * inverse Hessian matrix)
  average eigenvalue of G=   1.4281
 eigenvalue spectrum of G is  3.7211  0.2815  0.2815


--------------------------------------------------------------------------------------------------------


 writing wavefunctions
     LOOP+:  cpu time   54.3986: real time   66.7697
    4ORBIT:  cpu time    0.0000: real time    0.0000

 total amount of memory used by VASP on root node   135761. kBytes
========================================================================

   base      :      30000. kBytes
   nonlr-proj:       1275. kBytes
   fftplans  :       2607. kBytes
   grid      :       5367. kBytes
   one-center:         93. kBytes
   wavefun   :      96419. kBytes
 
  
  
 General timing and accounting informations for this job:
 ========================================================
  
                  Total CPU time used (sec):     1898.257
                            User time (sec):     1887.054
                          System time (sec):       11.204
                         Elapsed time (sec):     1942.789
  
                   Maximum memory used (kb):      168764.
                   Average memory used (kb):           0.
  
                          Minor page faults:       185590
                          Major page faults:            0
                 Voluntary context switches:         5514
