 vasp.5.4.1 24Jun15 (build Jun 17 2016 15:57:28) complex                        
  
 executed on           IFC91_ompi date 2016.12.07  20:11:50
 running on   15 total cores
 each image running on    5 cores
 distrk:  each k-point on    5 cores,    1 groups
 distr:  one band on NCORES_PER_BAND=   5 cores,    1 groups


--------------------------------------------------------------------------------------------------------


 INCAR:
 POTCAR:    PAW_PBE Li 17Jan2003                  
 POTCAR:   PAW_PBE O 08Apr2002                    
 POTCAR:    PAW_PBE P 17Jan2003                   
 POTCAR:   PAW_PBE Fe 06Sep2000                   

 ----------------------------------------------------------------------------- 
|                                                                             |
|           W    W    AA    RRRRR   N    N  II  N    N   GGGG   !!!           |
|           W    W   A  A   R    R  NN   N  II  NN   N  G    G  !!!           |
|           W    W  A    A  R    R  N N  N  II  N N  N  G       !!!           |
|           W WW W  AAAAAA  RRRRR   N  N N  II  N  N N  G  GGG   !            |
|           WW  WW  A    A  R   R   N   NN  II  N   NN  G    G                |
|           W    W  A    A  R    R  N    N  II  N    N   GGGG   !!!           |
|                                                                             |
|      For optimal performance we recommend to set                            |
|        NCORE= 4 - approx SQRT( number of cores)                             |
|      NCORE specifies how many cores store one orbital (NPAR=cpu/NCORE).     |
|      This setting can  greatly improve the performance of VASP for DFT.     |
|      The default, NPAR=number of cores might be grossly inefficient         |
|      on modern multi-core architectures or massively parallel machines.     |
|      Do your own testing !!!!                                               |
|      Unfortunately you need to use the default for GW and RPA calculations. |
|      (for HF NCORE is supported but not extensively tested yet)             |
|                                                                             |
 ----------------------------------------------------------------------------- 

 POTCAR:    PAW_PBE Li 17Jan2003                  
   VRHFIN =Li: s1p0                                                             
   LEXCH  = PE                                                                  
   EATOM  =     5.3001 eV,     .3895 Ry                                         
                                                                                
   TITEL  = PAW_PBE Li 17Jan2003                                                
   LULTRA =        F    use ultrasoft PP ?                                      
   IUNSCR =        1    unscreen: 0-lin 1-nonlin 2-no                           
   RPACOR =    1.500    partial core radius                                     
   POMASS =    7.010; ZVAL   =    1.000    mass and valenz                      
   RCORE  =    2.050    outmost cutoff radius                                   
   RWIGS  =    2.600; RWIGS  =    1.376    wigner-seitz radius (au A)           
   ENMAX  =  140.000; ENMIN  =  100.000 eV                                      
   ICORE  =        2    local potential                                         
   LCOR   =        T    correct aug charges                                     
   LPAW   =        T    paw PP                                                  
   EAUG   =  331.638                                                            
   DEXC   =    -.010                                                            
   RMAX   =    4.263    core radius for proj-oper                               
   RAUG   =    1.300    factor for augmentation sphere                          
   RDEP   =    2.094    radius for radial grids                                 
   QCUT   =   -2.932; QGAM   =    5.865    optimization parameters              
                                                                                
   Description                                                                  
     l     E      TYP  RCUT    TYP  RCUT                                        
     0   .000     23  2.050                                                     
     0  2.000     23  2.050                                                     
     1   .000     23  2.050                                                     
     2   .000     23  2.050                                                     
  local pseudopotential read in
  partial core-charges read in
  atomic valenz-charges read in
  non local Contribution for L=           0  read in
    real space projection operators read in
  non local Contribution for L=           0  read in
    real space projection operators read in
  non local Contribution for L=           1  read in
    real space projection operators read in
    PAW grid and wavefunctions read in
 
   number of l-projection  operators is LMAX  =           3
   number of lm-projection operators is LMMAX =           5
 
 POTCAR:   PAW_PBE O 08Apr2002                    
   VRHFIN =O: s2p4                                                              
   LEXCH  = PE                                                                  
   EATOM  =   432.3788 eV,   31.7789 Ry                                         
                                                                                
   TITEL  = PAW_PBE O 08Apr2002                                                 
   LULTRA =        F    use ultrasoft PP ?                                      
   IUNSCR =        0    unscreen: 0-lin 1-nonlin 2-no                           
   RPACOR =     .000    partial core radius                                     
   POMASS =   16.000; ZVAL   =    6.000    mass and valenz                      
   RCORE  =    1.520    outmost cutoff radius                                   
   RWIGS  =    1.550; RWIGS  =     .820    wigner-seitz radius (au A)           
   ENMAX  =  400.000; ENMIN  =  300.000 eV                                      
   ICORE  =        2    local potential                                         
   LCOR   =        T    correct aug charges                                     
   LPAW   =        T    paw PP                                                  
   EAUG   =  605.392                                                            
   DEXC   =     .000                                                            
   RMAX   =    2.264    core radius for proj-oper                               
   RAUG   =    1.300    factor for augmentation sphere                          
   RDEP   =    1.550    radius for radial grids                                 
   QCUT   =   -5.520; QGAM   =   11.041    optimization parameters              
                                                                                
   Description                                                                  
     l     E      TYP  RCUT    TYP  RCUT                                        
     0   .000     23  1.200                                                     
     0  -.700     23  1.200                                                     
     1   .000     23  1.520                                                     
     1   .600     23  1.520                                                     
     2   .000      7  1.500                                                     
  local pseudopotential read in
  atomic valenz-charges read in
  non local Contribution for L=           0  read in
    real space projection operators read in
  non local Contribution for L=           0  read in
    real space projection operators read in
  non local Contribution for L=           1  read in
    real space projection operators read in
  non local Contribution for L=           1  read in
    real space projection operators read in
    PAW grid and wavefunctions read in
 
   number of l-projection  operators is LMAX  =           4
   number of lm-projection operators is LMMAX =           8
 
 POTCAR:    PAW_PBE P 17Jan2003                   
   VRHFIN =P : s2p3                                                             
   LEXCH  = PE                                                                  
   EATOM  =   176.0430 eV,   12.9388 Ry                                         
                                                                                
   TITEL  = PAW_PBE P 17Jan2003                                                 
   LULTRA =        F    use ultrasoft PP ?                                      
   IUNSCR =        1    unscreen: 0-lin 1-nonlin 2-no                           
   RPACOR =    1.500    partial core radius                                     
   POMASS =   30.974; ZVAL   =    5.000    mass and valenz                      
   RCORE  =    1.900    outmost cutoff radius                                   
   RWIGS  =    2.330; RWIGS  =    1.233    wigner-seitz radius (au A)           
   ENMAX  =  270.000; ENMIN  =  191.280 eV                                      
   ICORE  =        2    local potential                                         
   LCOR   =        T    correct aug charges                                     
   LPAW   =        T    paw PP                                                  
   EAUG   =  342.924                                                            
   DEXC   =    -.002                                                            
   RMAX   =    2.887    core radius for proj-oper                               
   RAUG   =    1.300    factor for augmentation sphere                          
   RDEP   =    1.931    radius for radial grids                                 
   QCUT   =   -4.330; QGAM   =    8.659    optimization parameters              
                                                                                
   Description                                                                  
     l     E      TYP  RCUT    TYP  RCUT                                        
     0   .000     23  1.900                                                     
     0   .000     23  1.900                                                     
     1   .000     23  1.900                                                     
     1   .000     23  1.900                                                     
     2   .000     23  1.900                                                     
  local pseudopotential read in
  partial core-charges read in
  atomic valenz-charges read in
  non local Contribution for L=           0  read in
    real space projection operators read in
  non local Contribution for L=           0  read in
    real space projection operators read in
  non local Contribution for L=           1  read in
    real space projection operators read in
  non local Contribution for L=           1  read in
    real space projection operators read in
    PAW grid and wavefunctions read in
 
   number of l-projection  operators is LMAX  =           4
   number of lm-projection operators is LMMAX =           8
 
 POTCAR:   PAW_PBE Fe 06Sep2000                   
   VRHFIN =Fe:  d7 s1                                                           
   LEXCH  = PE                                                                  
   EATOM  =   594.4687 eV,   43.6922 Ry                                         
                                                                                
   TITEL  = PAW_PBE Fe 06Sep2000                                                
   LULTRA =        F    use ultrasoft PP ?                                      
   IUNSCR =        1    unscreen: 0-lin 1-nonlin 2-no                           
   RPACOR =    2.000    partial core radius                                     
   POMASS =   55.847; ZVAL   =    8.000    mass and valenz                      
   RCORE  =    2.300    outmost cutoff radius                                   
   RWIGS  =    2.460; RWIGS  =    1.302    wigner-seitz radius (au A)           
   ENMAX  =  267.883; ENMIN  =  200.912 eV                                      
   RCLOC  =    1.701    cutoff for local pot                                    
   LCOR   =        T    correct aug charges                                     
   LPAW   =        T    paw PP                                                  
   EAUG   =  511.368                                                            
   DEXC   =    -.022                                                            
   RMAX   =    2.817    core radius for proj-oper                               
   RAUG   =    1.300    factor for augmentation sphere                          
   RDEP   =    2.442    radius for radial grids                                 
   QCUT   =   -4.437; QGAM   =    8.874    optimization parameters              
                                                                                
   Description                                                                  
     l     E      TYP  RCUT    TYP  RCUT                                        
     2   .000     23  2.300                                                     
     2   .000     23  2.300                                                     
     0   .000     23  2.300                                                     
     0   .000     23  2.300                                                     
     1  -.200     23  2.300                                                     
     1   .000     23  2.300                                                     
     3   .000      7   .000                                                     
  local pseudopotential read in
  partial core-charges read in
  atomic valenz-charges read in
  non local Contribution for L=           2  read in
    real space projection operators read in
  non local Contribution for L=           2  read in
    real space projection operators read in
  non local Contribution for L=           0  read in
    real space projection operators read in
  non local Contribution for L=           0  read in
    real space projection operators read in
  non local Contribution for L=           1  read in
    real space projection operators read in
  non local Contribution for L=           1  read in
    real space projection operators read in
    PAW grid and wavefunctions read in
 
   number of l-projection  operators is LMAX  =           6
   number of lm-projection operators is LMMAX =          18
 
 Optimization of the real space projectors (new method)

 maximal supplied QI-value         = 18.33
 optimisation between [QCUT,QGAM] = [ 10.63, 21.45] = [ 31.65,128.80] Ry 
 Optimized for a Real-space Cutoff    1.13 Angstroem

   l    n(q)    QCUT    max X(q) W(low)/X(q) W(high)/X(q)  e(spline) 
   0      7    10.632    30.666    0.45E-04    0.40E-04    0.12E-07
   0      7    10.632    39.284    0.21E-03    0.37E-03    0.66E-07
   1      7    10.632     4.214    0.48E-03    0.63E-04    0.43E-07
 Optimization of the real space projectors (new method)

 maximal supplied QI-value         = 24.76
 optimisation between [QCUT,QGAM] = [ 10.64, 21.29] = [ 31.73,126.92] Ry 
 Optimized for a Real-space Cutoff    1.24 Angstroem

   l    n(q)    QCUT    max X(q) W(low)/X(q) W(high)/X(q)  e(spline) 
   0      8    10.645     4.192    0.70E-04    0.97E-04    0.61E-07
   0      8    10.645     8.473    0.43E-03    0.71E-03    0.17E-06
   1      7    10.645     2.474    0.95E-04    0.12E-03    0.31E-07
   1      7    10.645     3.912    0.31E-03    0.57E-03    0.16E-06
 Optimization of the real space projectors (new method)

 maximal supplied QI-value         = 19.84
 optimisation between [QCUT,QGAM] = [ 10.71, 21.43] = [ 32.15,128.60] Ry 
 Optimized for a Real-space Cutoff    1.20 Angstroem

   l    n(q)    QCUT    max X(q) W(low)/X(q) W(high)/X(q)  e(spline) 
   0      8    10.715     6.651    0.19E-04    0.13E-04    0.49E-08
   0      8    10.715    90.285    0.29E-03    0.24E-04    0.62E-07
   1      7    10.715     4.328    0.49E-04    0.39E-04    0.16E-07
   1      7    10.715    54.583    0.22E-03    0.53E-03    0.76E-07
 Optimization of the real space projectors (new method)

 maximal supplied QI-value         = 16.25
 optimisation between [QCUT,QGAM] = [ 10.73, 21.45] = [ 32.22,128.87] Ry 
 Optimized for a Real-space Cutoff    1.39 Angstroem

   l    n(q)    QCUT    max X(q) W(low)/X(q) W(high)/X(q)  e(spline) 
   2      8    10.726     4.378    0.63E-04    0.18E-04    0.44E-07
   2      8    10.726    23.237    0.16E-03    0.54E-03    0.20E-06
   0      9    10.726    17.641    0.27E-04    0.11E-04    0.53E-08
   0      9    10.726    50.908    0.30E-03    0.17E-03    0.46E-07
   1      8    10.726     6.148    0.30E-04    0.44E-04    0.30E-07
   1      8    10.726     8.345    0.17E-03    0.14E-03    0.14E-06
  PAW_PBE Li 17Jan2003                  :
 energy of atom  1       EATOM=   -5.3001
 kinetic energy error for atom=    0.0000 (will be added to EATOM!!)
 PAW_PBE O 08Apr2002                    :
 energy of atom  2       EATOM= -432.3788
 kinetic energy error for atom=    0.0450 (will be added to EATOM!!)
  PAW_PBE P 17Jan2003                   :
 energy of atom  3       EATOM= -176.0430
 kinetic energy error for atom=    0.0019 (will be added to EATOM!!)
 PAW_PBE Fe 06Sep2000                   :
 energy of atom  4       EATOM= -594.4687
 kinetic energy error for atom=    0.0038 (will be added to EATOM!!)
 
 
 POSCAR: Li   O    P    Fe                       
  positions in direct lattice
  No initial velocities read in
 exchange correlation table for  LEXCH =        8
   RHO(1)=    0.500       N(1)  =     2000
   RHO(2)=  100.500       N(2)  =     4000
 
 POSCAR: Li   O    P    Fe                       
  positions in direct lattice
  No initial velocities read in
 
 POSCAR: Li   O    P    Fe                       
  positions in direct lattice
  No initial velocities read in
 


--------------------------------------------------------------------------------------------------------


 ion  position               nearest neighbor table
   1  0.000  0.250  0.000-  14 1.68   4 1.68  20 2.30  10 2.58  19 2.58  26 2.80  20 2.91
   2  0.500  0.500  0.500-  15 2.16  16 2.16   9 2.25  17 2.25  12 2.28  11 2.28  21 2.74  22 2.74
                             3 3.04   3 3.04
   3  0.500  0.000  0.500-  15 2.16  16 2.16   9 2.25  17 2.25  13 2.28  18 2.28  21 2.74  22 2.74
                             2 3.04   2 3.04
   4  0.115  0.250  0.753-  20 1.54   1 1.68  26 1.96
   5  0.824  0.550  0.720-  23 1.61  25 2.05  24 2.11
   6  0.824  0.950  0.720-  23 1.61  25 2.05  24 2.11
   7  0.885  0.750  0.247-  23 1.54  25 1.96
   8  0.040  0.750  0.657-  23 1.54  27 2.09
   9  0.391  0.750  0.248-  21 1.55  27 2.06   2 2.25   3 2.25
  10  0.176  0.050  0.280-  20 1.61  26 2.05  27 2.11   1 2.58
  11  0.675  0.454  0.220-  22 1.59  25 2.16  24 2.17   2 2.28
  12  0.325  0.546  0.780-  21 1.59  26 2.16  27 2.17   2 2.28
  13  0.325  0.954  0.780-  21 1.59  26 2.16  27 2.17   3 2.28
  14  0.960  0.250  0.343-  20 1.54   1 1.68  24 2.09
  15  0.463  0.250  0.187-  22 1.56   2 2.16   3 2.16  26 2.24
  16  0.537  0.750  0.813-  21 1.56   2 2.16   3 2.16  25 2.24
  17  0.609  0.250  0.752-  22 1.55  24 2.06   2 2.25   3 2.25
  18  0.675  0.046  0.220-  22 1.59  25 2.16  24 2.17   3 2.28
  19  0.176  0.450  0.280-  20 1.61  26 2.05  27 2.11   1 2.58
  20  0.101  0.250  0.431-  14 1.54   4 1.54  10 1.61  19 1.61   1 2.30  26 2.70   1 2.91
  21  0.396  0.750  0.922-   9 1.55  16 1.56  12 1.59  13 1.59   2 2.74   3 2.74  27 2.77
  22  0.604  0.250  0.078-  17 1.55  15 1.56  11 1.59  18 1.59   2 2.74   3 2.74  24 2.77
  23  0.899  0.750  0.569-   8 1.54   7 1.54   6 1.61   5 1.61  25 2.70
  24  0.777  0.250  0.521-  17 2.06  14 2.09   5 2.11   6 2.11  11 2.17  18 2.17  22 2.77
  25  0.733  0.750  0.004-   7 1.96   5 2.05   6 2.05  11 2.16  18 2.16  16 2.24  23 2.70
  26  0.267  0.250  0.996-   4 1.96  19 2.05  10 2.05  12 2.16  13 2.16  15 2.24  20 2.70   1 2.80

  27  0.223  0.750  0.479-   9 2.06   8 2.09  19 2.11  10 2.11  12 2.17  13 2.17  21 2.77
 
  LATTYP: Found a simple orthorhombic cell.
 ALAT       =     4.7519550000
 B/A-ratio  =     1.2810203379
 C/A-ratio  =     2.1992354726
  
  Lattice vectors:
  
 A1 = (   0.0000000000,   0.0000000000,  -4.7519550000)
 A2 = (   0.0000000000,  -6.0873510000,   0.0000000000)
 A3 = ( -10.4506680000,   0.0000000000,   0.0000000000)


Analysis of symmetry for initial positions (statically):
=====================================================================
 Subroutine PRICEL returns:
 Original cell was already a primitive cell.
 

 Routine SETGRP: Setting up the symmetry group for a 
 simple orthorhombic supercell.


 Subroutine GETGRP returns: Found  1 space group operations
 (whereof  1 operations were pure point group operations)
 out of a pool of  8 trial point group operations.


The static configuration has the point symmetry C_1 .


Analysis of symmetry for dynamics (positions and initial velocities):
=====================================================================
 Subroutine PRICEL returns:
 Original cell was already a primitive cell.
 

 Routine SETGRP: Setting up the symmetry group for a 
 simple orthorhombic supercell.


 Subroutine GETGRP returns: Found  1 space group operations
 (whereof  1 operations were pure point group operations)
 out of a pool of  8 trial point group operations.


The dynamic configuration has the point symmetry C_1 .
 
 
 KPOINTS: Automatic Mesh                          

Automatic generation of k-mesh.
Space group operators:
 irot       det(A)        alpha          n_x          n_y          n_z        tau_x        tau_y        tau_z
    1     1.000000     0.000000     1.000000     0.000000     0.000000     0.000000     0.000000     0.000000
 
 Subroutine IBZKPT returns following result:
 ===========================================
 
 Found     46 irreducible k-points:
 
 Following reciprocal coordinates:
            Coordinates               Weight
  0.000000  0.000000  0.000000      1.000000
  0.333333  0.000000  0.000000      2.000000
  0.000000  0.200000  0.000000      2.000000
  0.333333  0.200000  0.000000      2.000000
 -0.333333  0.200000  0.000000      2.000000
  0.000000  0.400000  0.000000      2.000000
  0.333333  0.400000  0.000000      2.000000
 -0.333333  0.400000  0.000000      2.000000
  0.000000  0.000000  0.166667      2.000000
  0.333333  0.000000  0.166667      2.000000
 -0.333333  0.000000  0.166667      2.000000
  0.000000  0.200000  0.166667      2.000000
  0.333333  0.200000  0.166667      2.000000
 -0.333333  0.200000  0.166667      2.000000
  0.000000  0.400000  0.166667      2.000000
  0.333333  0.400000  0.166667      2.000000
 -0.333333  0.400000  0.166667      2.000000
  0.000000 -0.400000  0.166667      2.000000
  0.333333 -0.400000  0.166667      2.000000
 -0.333333 -0.400000  0.166667      2.000000
  0.000000 -0.200000  0.166667      2.000000
  0.333333 -0.200000  0.166667      2.000000
 -0.333333 -0.200000  0.166667      2.000000
  0.000000  0.000000  0.333333      2.000000
  0.333333  0.000000  0.333333      2.000000
 -0.333333  0.000000  0.333333      2.000000
  0.000000  0.200000  0.333333      2.000000
  0.333333  0.200000  0.333333      2.000000
 -0.333333  0.200000  0.333333      2.000000
  0.000000  0.400000  0.333333      2.000000
  0.333333  0.400000  0.333333      2.000000
 -0.333333  0.400000  0.333333      2.000000
  0.000000 -0.400000  0.333333      2.000000
  0.333333 -0.400000  0.333333      2.000000
 -0.333333 -0.400000  0.333333      2.000000
  0.000000 -0.200000  0.333333      2.000000
  0.333333 -0.200000  0.333333      2.000000
 -0.333333 -0.200000  0.333333      2.000000
  0.000000  0.000000  0.500000      1.000000
  0.333333  0.000000  0.500000      2.000000
  0.000000  0.200000  0.500000      2.000000
  0.333333  0.200000  0.500000      2.000000
 -0.333333  0.200000  0.500000      2.000000
  0.000000  0.400000  0.500000      2.000000
  0.333333  0.400000  0.500000      2.000000
 -0.333333  0.400000  0.500000      2.000000
 
 Following cartesian coordinates:
            Coordinates               Weight
  0.000000  0.000000  0.000000      1.000000
  0.031896  0.000000  0.000000      2.000000
  0.000000  0.032855  0.000000      2.000000
  0.031896  0.032855  0.000000      2.000000
 -0.031896  0.032855  0.000000      2.000000
  0.000000  0.065710  0.000000      2.000000
  0.031896  0.065710  0.000000      2.000000
 -0.031896  0.065710  0.000000      2.000000
  0.000000  0.000000  0.035073      2.000000
  0.031896  0.000000  0.035073      2.000000
 -0.031896  0.000000  0.035073      2.000000
  0.000000  0.032855  0.035073      2.000000
  0.031896  0.032855  0.035073      2.000000
 -0.031896  0.032855  0.035073      2.000000
  0.000000  0.065710  0.035073      2.000000
  0.031896  0.065710  0.035073      2.000000
 -0.031896  0.065710  0.035073      2.000000
  0.000000 -0.065710  0.035073      2.000000
  0.031896 -0.065710  0.035073      2.000000
 -0.031896 -0.065710  0.035073      2.000000
  0.000000 -0.032855  0.035073      2.000000
  0.031896 -0.032855  0.035073      2.000000
 -0.031896 -0.032855  0.035073      2.000000
  0.000000  0.000000  0.070147      2.000000
  0.031896  0.000000  0.070147      2.000000
 -0.031896  0.000000  0.070147      2.000000
  0.000000  0.032855  0.070147      2.000000
  0.031896  0.032855  0.070147      2.000000
 -0.031896  0.032855  0.070147      2.000000
  0.000000  0.065710  0.070147      2.000000
  0.031896  0.065710  0.070147      2.000000
 -0.031896  0.065710  0.070147      2.000000
  0.000000 -0.065710  0.070147      2.000000
  0.031896 -0.065710  0.070147      2.000000
 -0.031896 -0.065710  0.070147      2.000000
  0.000000 -0.032855  0.070147      2.000000
  0.031896 -0.032855  0.070147      2.000000
 -0.031896 -0.032855  0.070147      2.000000
  0.000000  0.000000  0.105220      1.000000
  0.031896  0.000000  0.105220      2.000000
  0.000000  0.032855  0.105220      2.000000
  0.031896  0.032855  0.105220      2.000000
 -0.031896  0.032855  0.105220      2.000000
  0.000000  0.065710  0.105220      2.000000
  0.031896  0.065710  0.105220      2.000000
 -0.031896  0.065710  0.105220      2.000000
 


--------------------------------------------------------------------------------------------------------




 Dimension of arrays:
   k-points           NKPTS =     46   k-points in BZ     NKDIM =     46   number of bands    NBANDS=     95
   number of dos      NEDOS =    301   number of ions     NIONS =     27
   non local maximal  LDIM  =      6   non local SUM 2l+1 LMDIM =     18
   total plane-waves  NPLWV =  41472
   max r-space proj   IRMAX =   1609   max aug-charges    IRDMAX=   5086
   dimension x,y,z NGX =    54 NGY =   32 NGZ =   24
   dimension x,y,z NGXF=   108 NGYF=   64 NGZF=   48
   support grid    NGXF=   108 NGYF=   64 NGZF=   48
   ions per type =               3  16   4   4
 NGX,Y,Z   is equivalent  to a cutoff of   8.59,  8.74,  8.40 a.u.
 NGXF,Y,Z  is equivalent  to a cutoff of  17.18, 17.48, 16.79 a.u.


 I would recommend the setting:
   dimension x,y,z NGX =    54 NGY =   31 NGZ =   24
 SYSTEM =  Final conf. for neb from mp-19017       
 POSCAR =  Li   O    P    Fe                       

 Startparameter for this run:
   NWRITE =      2    write-flag & timer
   PREC   = normal    normal or accurate (medium, high low for compatibility)
   ISTART =      0    job   : 0-new  1-cont  2-samecut
   ICHARG =      2    charge: 1-file 2-atom 10-const
   ISPIN  =      1    spin polarized calculation?
   LNONCOLLINEAR =      F non collinear calculations
   LSORBIT =      F    spin-orbit coupling
   INIWAV =      1    electr: 0-lowe 1-rand  2-diag
   LASPH  =      F    aspherical Exc in radial PAW
   METAGGA=      F    non-selfconsistent MetaGGA calc.

 Electronic Relaxation 1
   ENCUT  =  441.0 eV  32.41 Ry    5.69 a.u.  17.89 10.42  8.14*2*pi/ulx,y,z
   ENINI  =  441.0     initial cutoff
   ENAUG  =  776.2 eV  augmentation charge cutoff
   NELM   =     50;   NELMIN=  4; NELMDL= -5     # of ELM steps 
   EDIFF  = 0.6E-05   stopping-criterion for ELM
   LREAL  =      T    real-space projection
   NLSPLINE    = F    spline interpolate recip. space projectors
   LCOMPAT=      F    compatible to vasp.4.4
   GGA_COMPAT  = T    GGA compatible to vasp.4.4-vasp.4.6
   LMAXPAW     = -100 max onsite density
   LMAXMIX     =    2 max onsite mixed and CHGCAR
   VOSKOWN=      0    Vosko Wilk Nusair interpolation
   ROPT   =   -0.00050  -0.00050  -0.00050  -0.00050
 Ionic relaxation
   EDIFFG = -.3E-01   stopping-criterion for IOM
   NSW    =     20    number of steps for IOM
   NBLOCK =      1;   KBLOCK =     20    inner block; outer block 
   IBRION =      1    ionic relax: 0-MD 1-quasi-New 2-CG
   NFREE  =      0    steps in history (QN), initial steepest desc. (CG)
   ISIF   =      2    stress and relaxation
   IWAVPR =     11    prediction:  0-non 1-charg 2-wave 3-comb
   ISYM   =      2    0-nonsym 1-usesym 2-fastsym
   LCORR  =      T    Harris-Foulkes like correction to forces

   POTIM  = 0.5000    time-step for ionic-motion
   TEIN   =    0.0    initial temperature
   TEBEG  =    0.0;   TEEND  =   0.0 temperature during run
   SMASS  =  -3.00    Nose mass-parameter (am)
   estimated Nose-frequenzy (Omega)   =  0.10E-29 period in steps =****** mass=  -0.250E-26a.u.
   SCALEE = 1.0000    scale energy and forces
   NPACO  =    256;   APACO  = 16.0  distance and # of slots for P.C.
   PSTRESS=    0.0 pullay stress

  Mass of Ions in am
   POMASS =   7.01 16.00 30.97 55.85
  Ionic Valenz
   ZVAL   =   1.00  6.00  5.00  8.00
  Atomic Wigner-Seitz radii
   RWIGS  =  -1.00 -1.00 -1.00 -1.00
  virtual crystal weights 
   VCA    =   1.00  1.00  1.00  1.00
   NELECT =     151.0000    total number of electrons
   NUPDOWN=      -1.0000    fix difference up-down

 DOS related values:
   EMIN   =  10.00;   EMAX   =-10.00  energy-range for DOS
   EFERMI =   0.00
   ISMEAR =     2;   SIGMA  =   0.20  broadening in eV -4-tet -1-fermi 0-gaus

 Electronic relaxation 2 (details)
   IALGO  =     38    algorithm
   LDIAG  =      T    sub-space diagonalisation (order eigenvalues)
   LSUBROT=      F    optimize rotation matrix (better conditioning)
   TURBO    =      0    0=normal 1=particle mesh
   IRESTART =      0    0=no restart 2=restart with 2 vectors
   NREBOOT  =      0    no. of reboots
   NMIN     =      0    reboot dimension
   EREF     =   0.00    reference energy to select bands
   IMIX   =      4    mixing-type and parameters
     AMIX     =   0.40;   BMIX     =  1.00
     AMIX_MAG =   1.60;   BMIX_MAG =  1.00
     AMIN     =   0.10
     WC   =   100.;   INIMIX=   1;  MIXPRE=   1;  MAXMIX=  40

 Intra band minimization:
   WEIMIN = 0.0010     energy-eigenvalue tresh-hold
   EBREAK =  0.16E-07  absolut break condition
   DEPER  =   0.30     relativ break condition  

   TIME   =   0.40     timestep for ELM

  volume/ion in A,a.u.               =      11.20        75.56
  Fermi-wavevector in a.u.,A,eV,Ry     =   1.298929  2.454621 22.955992  1.687218
  Thomas-Fermi vector in A             =   2.430226
 
 Write flags
   LWAVE  =      T    write WAVECAR
   LCHARG =      T    write CHGCAR
   LVTOT  =      F    write LOCPOT, total local potential
   LVHAR  =      F    write LOCPOT, Hartree potential only
   LELF   =      F    write electronic localiz. function (ELF)
   LORBIT =      0    0 simple, 1 ext, 2 COOP (PROOUT)


 Dipole corrections
   LMONO  =      F    monopole corrections only (constant potential shift)
   LDIPOL =      F    correct potential (dipole corrections)
   IDIPOL =      0    1-x, 2-y, 3-z, 4-all directions 
   EPSILON=  1.0000000 bulk dielectric constant

 Exchange correlation treatment:
   GGA     =    --    GGA type
   LEXCH   =     8    internal setting for exchange type
   VOSKOWN=      0    Vosko Wilk Nusair interpolation
   LHFCALC =     F    Hartree Fock is set to
   LHFONE  =     F    Hartree Fock one center treatment
   AEXX    =    0.0000 exact exchange contribution

 Linear response parameters
   LEPSILON=     F    determine dielectric tensor
   LRPA    =     F    only Hartree local field effects (RPA)
   LNABLA  =     F    use nabla operator in PAW spheres
   LVEL    =     F    velocity operator in full k-point grid
   LINTERFAST=   F  fast interpolation
   KINTER  =     0    interpolate to denser k-point grid
   CSHIFT  =0.1000    complex shift for real part using Kramers Kronig
   OMEGAMAX=  -1.0    maximum frequency
   DEG_THRESHOLD= 0.2000000E-02 threshold for treating states as degnerate
   RTIME   =    0.100 relaxation time in fs

 Orbital magnetization related:
   ORBITALMAG=     F  switch on orbital magnetization
   LCHIMAG   =     F  perturbation theory with respect to B field
   DQ        =  0.001000  dq finite difference perturbation B field



--------------------------------------------------------------------------------------------------------


 quasi-Newton-method for relaxation of ions
 charge density and potential will be updated during run
 non-spin polarized calculation
 Variant of blocked Davidson
 Davidson routine will perform the subspace rotation
 perform sub-space diagonalisation
    after iterative eigenvector-optimisation
 modified Broyden-mixing scheme, WC =      100.0
 initial mixing is a Kerker type mixing with AMIX =  0.4000 and BMIX =      1.0000
 Hartree-type preconditioning will be used
 using additional bands           19
 real space projection scheme for non local part
 use partial core corrections
 calculate Harris-corrections to forces 
   (improved forces if not selfconsistent)
 use gradient corrections 
 use of overlap-Matrix (Vanderbilt PP)
 Methfessel and Paxton  Order N= 2 SIGMA  =   0.20


--------------------------------------------------------------------------------------------------------


  energy-cutoff  :      441.00
  volume of cell :      302.30
      direct lattice vectors                 reciprocal lattice vectors
    10.450668000  0.000000000  0.000000000     0.095687663  0.000000000  0.000000000
     0.000000000  6.087351000  0.000000000     0.000000000  0.164275068  0.000000000
     0.000000000  0.000000000  4.751955000     0.000000000  0.000000000  0.210439703

  length of vectors
    10.450668000  6.087351000  4.751955000     0.095687663  0.164275068  0.210439703


 
 k-points in units of 2pi/SCALE and weight: Automatic Mesh                          
   0.00000000  0.00000000  0.00000000       0.011
   0.03189589  0.00000000  0.00000000       0.022
   0.00000000  0.03285501  0.00000000       0.022
   0.03189589  0.03285501  0.00000000       0.022
  -0.03189589  0.03285501  0.00000000       0.022
   0.00000000  0.06571003  0.00000000       0.022
   0.03189589  0.06571003  0.00000000       0.022
  -0.03189589  0.06571003  0.00000000       0.022
   0.00000000  0.00000000  0.03507328       0.022
   0.03189589  0.00000000  0.03507328       0.022
  -0.03189589  0.00000000  0.03507328       0.022
   0.00000000  0.03285501  0.03507328       0.022
   0.03189589  0.03285501  0.03507328       0.022
  -0.03189589  0.03285501  0.03507328       0.022
   0.00000000  0.06571003  0.03507328       0.022
   0.03189589  0.06571003  0.03507328       0.022
  -0.03189589  0.06571003  0.03507328       0.022
   0.00000000 -0.06571003  0.03507328       0.022
   0.03189589 -0.06571003  0.03507328       0.022
  -0.03189589 -0.06571003  0.03507328       0.022
   0.00000000 -0.03285501  0.03507328       0.022
   0.03189589 -0.03285501  0.03507328       0.022
  -0.03189589 -0.03285501  0.03507328       0.022
   0.00000000  0.00000000  0.07014657       0.022
   0.03189589  0.00000000  0.07014657       0.022
  -0.03189589  0.00000000  0.07014657       0.022
   0.00000000  0.03285501  0.07014657       0.022
   0.03189589  0.03285501  0.07014657       0.022
  -0.03189589  0.03285501  0.07014657       0.022
   0.00000000  0.06571003  0.07014657       0.022
   0.03189589  0.06571003  0.07014657       0.022
  -0.03189589  0.06571003  0.07014657       0.022
   0.00000000 -0.06571003  0.07014657       0.022
   0.03189589 -0.06571003  0.07014657       0.022
  -0.03189589 -0.06571003  0.07014657       0.022
   0.00000000 -0.03285501  0.07014657       0.022
   0.03189589 -0.03285501  0.07014657       0.022
  -0.03189589 -0.03285501  0.07014657       0.022
   0.00000000  0.00000000  0.10521985       0.011
   0.03189589  0.00000000  0.10521985       0.022
   0.00000000  0.03285501  0.10521985       0.022
   0.03189589  0.03285501  0.10521985       0.022
  -0.03189589  0.03285501  0.10521985       0.022
   0.00000000  0.06571003  0.10521985       0.022
   0.03189589  0.06571003  0.10521985       0.022
  -0.03189589  0.06571003  0.10521985       0.022
 
 k-points in reciprocal lattice and weights: Automatic Mesh                          
   0.00000000  0.00000000  0.00000000       0.011
   0.33333333  0.00000000  0.00000000       0.022
   0.00000000  0.20000000  0.00000000       0.022
   0.33333333  0.20000000  0.00000000       0.022
  -0.33333333  0.20000000  0.00000000       0.022
   0.00000000  0.40000000  0.00000000       0.022
   0.33333333  0.40000000  0.00000000       0.022
  -0.33333333  0.40000000  0.00000000       0.022
   0.00000000  0.00000000  0.16666667       0.022
   0.33333333  0.00000000  0.16666667       0.022
  -0.33333333  0.00000000  0.16666667       0.022
   0.00000000  0.20000000  0.16666667       0.022
   0.33333333  0.20000000  0.16666667       0.022
  -0.33333333  0.20000000  0.16666667       0.022
   0.00000000  0.40000000  0.16666667       0.022
   0.33333333  0.40000000  0.16666667       0.022
  -0.33333333  0.40000000  0.16666667       0.022
   0.00000000 -0.40000000  0.16666667       0.022
   0.33333333 -0.40000000  0.16666667       0.022
  -0.33333333 -0.40000000  0.16666667       0.022
   0.00000000 -0.20000000  0.16666667       0.022
   0.33333333 -0.20000000  0.16666667       0.022
  -0.33333333 -0.20000000  0.16666667       0.022
   0.00000000  0.00000000  0.33333333       0.022
   0.33333333  0.00000000  0.33333333       0.022
  -0.33333333  0.00000000  0.33333333       0.022
   0.00000000  0.20000000  0.33333333       0.022
   0.33333333  0.20000000  0.33333333       0.022
  -0.33333333  0.20000000  0.33333333       0.022
   0.00000000  0.40000000  0.33333333       0.022
   0.33333333  0.40000000  0.33333333       0.022
  -0.33333333  0.40000000  0.33333333       0.022
   0.00000000 -0.40000000  0.33333333       0.022
   0.33333333 -0.40000000  0.33333333       0.022
  -0.33333333 -0.40000000  0.33333333       0.022
   0.00000000 -0.20000000  0.33333333       0.022
   0.33333333 -0.20000000  0.33333333       0.022
  -0.33333333 -0.20000000  0.33333333       0.022
   0.00000000  0.00000000  0.50000000       0.011
   0.33333333  0.00000000  0.50000000       0.022
   0.00000000  0.20000000  0.50000000       0.022
   0.33333333  0.20000000  0.50000000       0.022
  -0.33333333  0.20000000  0.50000000       0.022
   0.00000000  0.40000000  0.50000000       0.022
   0.33333333  0.40000000  0.50000000       0.022
  -0.33333333  0.40000000  0.50000000       0.022
 
 position of ions in fractional coordinates (direct lattice) 
   0.00000000  0.25000000  0.00000000
   0.50000000  0.50000000  0.50000000
   0.50000000  0.00000000  0.50000000
   0.11549721  0.24992084  0.75342795
   0.82387833  0.55023907  0.71957837
   0.82392906  0.94988202  0.71967039
   0.88450379  0.75007916  0.24657305
   0.04029900  0.75002213  0.65747638
   0.39063197  0.74996985  0.24818061
   0.17607094  0.05011898  0.28033061
   0.67477006  0.45375349  0.22034692
   0.32522994  0.54624651  0.77965308
   0.32526814  0.95369837  0.77960689
   0.95970100  0.24997787  0.34252462
   0.46295925  0.25006099  0.18748100
   0.53704075  0.74993901  0.81252000
   0.60936803  0.25003015  0.75182039
   0.67473186  0.04630263  0.22039311
   0.17612167  0.44976093  0.28042263
   0.10145265  0.24993040  0.43061692
   0.39598799  0.74995238  0.92152613
   0.60401201  0.25004762  0.07847287
   0.89854735  0.75006960  0.56938208
   0.77671645  0.25006068  0.52135698
   0.73252935  0.75000894  0.00388860
   0.26747065  0.24999106  0.99611240
   0.22328355  0.74993932  0.47864202
 
 position of ions in cartesian coordinates  (Angst):
   0.00000000  1.52183775  0.00000000
   5.22533400  3.04367550  2.37597750
   5.22533400  0.00000000  2.37597750
   1.20702296  1.52135588  3.58025572
   8.61007885  3.34949835  3.41940403
   8.61060904  5.78226526  3.41984132
   9.24365549  4.56599512  1.17170403
   0.42115144  4.56564797  3.12429817
   4.08236502  4.56532972  1.17934308
   1.84005896  0.30509183  1.33211843
   7.05179788  2.76215677  1.04707863
   3.39887012  3.32519423  3.70487637
   3.39926938  5.80549673  3.70465687
  10.02951656  1.52170303  1.62766158
   4.83823337  1.52220901  0.89090128
   5.61243463  4.56514199  3.86105847
   6.36830298  1.52202128  3.57261667
   7.05139862  0.28186035  1.04729813
   1.84058915  2.73785265  1.33255572
   1.06024794  1.52141409  2.04627222
   4.13833899  4.56522339  4.37905069
   6.31232901  1.52212761  0.37289956
   9.39042006  4.56593691  2.70567803
   8.11720572  1.52220713  2.47746491
   7.65542104  4.56556767  0.01847846
   2.79524696  1.52178333  4.73348129
   2.33346228  4.56514387  2.27448534
 


--------------------------------------------------------------------------------------------------------


 k-point  1 :   0.0000 0.0000 0.0000  plane waves:    6383
 k-point  2 :   0.3333 0.0000 0.0000  plane waves:    6358
 k-point  3 :   0.0000 0.2000 0.0000  plane waves:    6353
 k-point  4 :   0.3333 0.2000 0.0000  plane waves:    6357
 k-point  5 :  -0.3333 0.2000 0.0000  plane waves:    6357
 k-point  6 :   0.0000 0.4000 0.0000  plane waves:    6363
 k-point  7 :   0.3333 0.4000 0.0000  plane waves:    6345
 k-point  8 :  -0.3333 0.4000 0.0000  plane waves:    6345
 k-point  9 :   0.0000 0.0000 0.1667  plane waves:    6350
 k-point 10 :   0.3333 0.0000 0.1667  plane waves:    6358
 k-point 11 :  -0.3333 0.0000 0.1667  plane waves:    6358
 k-point 12 :   0.0000 0.2000 0.1667  plane waves:    6352
 k-point 13 :   0.3333 0.2000 0.1667  plane waves:    6350
 k-point 14 :  -0.3333 0.2000 0.1667  plane waves:    6350
 k-point 15 :   0.0000 0.4000 0.1667  plane waves:    6341
 k-point 16 :   0.3333 0.4000 0.1667  plane waves:    6345
 k-point 17 :  -0.3333 0.4000 0.1667  plane waves:    6345
 k-point 18 :   0.0000-0.4000 0.1667  plane waves:    6341
 k-point 19 :   0.3333-0.4000 0.1667  plane waves:    6345
 k-point 20 :  -0.3333-0.4000 0.1667  plane waves:    6345
 k-point 21 :   0.0000-0.2000 0.1667  plane waves:    6352
 k-point 22 :   0.3333-0.2000 0.1667  plane waves:    6350
 k-point 23 :  -0.3333-0.2000 0.1667  plane waves:    6350
 k-point 24 :   0.0000 0.0000 0.3333  plane waves:    6354
 k-point 25 :   0.3333 0.0000 0.3333  plane waves:    6370
 k-point 26 :  -0.3333 0.0000 0.3333  plane waves:    6370
 k-point 27 :   0.0000 0.2000 0.3333  plane waves:    6373
 k-point 28 :   0.3333 0.2000 0.3333  plane waves:    6365
 k-point 29 :  -0.3333 0.2000 0.3333  plane waves:    6365
 k-point 30 :   0.0000 0.4000 0.3333  plane waves:    6345
 k-point 31 :   0.3333 0.4000 0.3333  plane waves:    6357
 k-point 32 :  -0.3333 0.4000 0.3333  plane waves:    6357
 k-point 33 :   0.0000-0.4000 0.3333  plane waves:    6345
 k-point 34 :   0.3333-0.4000 0.3333  plane waves:    6357
 k-point 35 :  -0.3333-0.4000 0.3333  plane waves:    6357
 k-point 36 :   0.0000-0.2000 0.3333  plane waves:    6373
 k-point 37 :   0.3333-0.2000 0.3333  plane waves:    6365
 k-point 38 :  -0.3333-0.2000 0.3333  plane waves:    6365
 k-point 39 :   0.0000 0.0000 0.5000  plane waves:    6372
 k-point 40 :   0.3333 0.0000 0.5000  plane waves:    6374
 k-point 41 :   0.0000 0.2000 0.5000  plane waves:    6368
 k-point 42 :   0.3333 0.2000 0.5000  plane waves:    6380
 k-point 43 :  -0.3333 0.2000 0.5000  plane waves:    6380
 k-point 44 :   0.0000 0.4000 0.5000  plane waves:    6344
 k-point 45 :   0.3333 0.4000 0.5000  plane waves:    6368
 k-point 46 :  -0.3333 0.4000 0.5000  plane waves:    6368

 maximum and minimum number of plane-waves per node :      1324     1229

 maximum number of plane-waves:      6383
 maximum index in each direction: 
   IXMAX=   18   IYMAX=   10   IZMAX=    8
   IXMIN=  -18   IYMIN=  -10   IZMIN=   -8

 WARNING: aliasing errors must be expected set NGX to  74 to avoid them
 WARNING: aliasing errors must be expected set NGY to  42 to avoid them
 WARNING: aliasing errors must be expected set NGZ to  34 to avoid them
 aliasing errors are usually negligible using standard VASP settings
 and one can safely disregard these warnings

 real space projection operators:
  total allocation   :       2236.60 KBytes
  max/ min on nodes  :        456.22        427.42


 parallel 3D FFT for wavefunctions:
    minimum data exchange during FFTs selected (reduces bandwidth)
 parallel 3D FFT for charge:
    minimum data exchange during FFTs selected (reduces bandwidth)


 total amount of memory used by VASP on root node   135756. kBytes
========================================================================

   base      :      30000. kBytes
   nonlr-proj:       1270. kBytes
   fftplans  :       2607. kBytes
   grid      :       5367. kBytes
   one-center:         93. kBytes
   wavefun   :      96419. kBytes
 
     INWAV:  cpu time    0.0000: real time    0.0002
 Broyden mixing: mesh for mixing (old mesh)
   NGX = 35   NGY = 21   NGZ = 17
  (NGX  =108   NGY  = 64   NGZ  = 48)
  gives a total of  12495 points

 initial charge density was supplied:
 charge density of overlapping atoms calculated
 number of electron     151.0000000 magnetization 
 keeping initial charge density in first step


--------------------------------------------------------------------------------------------------------


 Maximum index for non-local projection operator          316
 Maximum index for augmentation-charges          969 (set IRDMAX)


--------------------------------------------------------------------------------------------------------


 First call to EWALD:  gamma=   0.264
 Maximum number of real-space cells 2x 3x 4
 Maximum number of reciprocal cells 4x 3x 2

 FEWALD executed in parallel
    FEWALD:  cpu time    0.0026: real time    0.0029


----------------------------------------- Iteration    1(   1)  ---------------------------------------


    POTLOK:  cpu time    0.0412: real time    0.0412
    SETDIJ:  cpu time    0.0089: real time    0.0089
     EDDAV:  cpu time    9.4519: real time    9.4450
       DOS:  cpu time    0.0160: real time    0.0160
    --------------------------------------------
      LOOP:  cpu time    9.5206: real time    9.6289

 eigenvalue-minimisations  :  8740
 total energy-change (2. order) : 0.1696802E+04  (-0.6226918E+04)
 number of electron     151.0000000 magnetization 
 augmentation part      151.0000000 magnetization 

 Free energy of the ion-electron system (eV)
  ---------------------------------------------------
  alpha Z        PSCENC =       401.59370410
  Ewald energy   TEWEN  =     -7101.95815382
  -Hartree energ DENC   =     -3145.69205543
  -exchange      EXHF   =         0.00000000
  -V(xc)+E(xc)   XCENC  =       463.73350651
  PAW double counting   =      6060.85387329    -6071.66291187
  entropy T*S    EENTRO =        -0.00259264
  eigenvalues    EBANDS =      1074.67103377
  atomic energy  EATOM  =     10015.26539877
  Solvation  Ediel_sol  =         0.00000000
  ---------------------------------------------------
  free energy    TOTEN  =      1696.80180269 eV

  energy without entropy =     1696.80439533  energy(sigma->0) =     1696.80245085


--------------------------------------------------------------------------------------------------------




----------------------------------------- Iteration    1(   2)  ---------------------------------------


     EDDAV:  cpu time    9.9636: real time    9.9559
       DOS:  cpu time    0.0189: real time    0.0189
    --------------------------------------------
      LOOP:  cpu time    9.9836: real time   10.1935

 eigenvalue-minimisations  :  9349
 total energy-change (2. order) :-0.1619176E+04  (-0.1486265E+04)
 number of electron     151.0000000 magnetization 
 augmentation part      151.0000000 magnetization 

 Free energy of the ion-electron system (eV)
  ---------------------------------------------------
  alpha Z        PSCENC =       401.59370410
  Ewald energy   TEWEN  =     -7101.95815382
  -Hartree energ DENC   =     -3145.69205543
  -exchange      EXHF   =         0.00000000
  -V(xc)+E(xc)   XCENC  =       463.73350651
  PAW double counting   =      6060.85387329    -6071.66291187
  entropy T*S    EENTRO =         0.00676468
  eigenvalues    EBANDS =      -544.51417876
  atomic energy  EATOM  =     10015.26539877
  Solvation  Ediel_sol  =         0.00000000
  ---------------------------------------------------
  free energy    TOTEN  =        77.62594748 eV

  energy without entropy =       77.61918280  energy(sigma->0) =       77.62425631


--------------------------------------------------------------------------------------------------------




----------------------------------------- Iteration    1(   3)  ---------------------------------------


     EDDAV:  cpu time   10.5483: real time   10.5403
       DOS:  cpu time    0.0201: real time    0.0201
    --------------------------------------------
      LOOP:  cpu time   10.5695: real time   10.6742

 eigenvalue-minimisations  : 10041
 total energy-change (2. order) :-0.2742014E+03  (-0.2647687E+03)
 number of electron     151.0000000 magnetization 
 augmentation part      151.0000000 magnetization 

 Free energy of the ion-electron system (eV)
  ---------------------------------------------------
  alpha Z        PSCENC =       401.59370410
  Ewald energy   TEWEN  =     -7101.95815382
  -Hartree energ DENC   =     -3145.69205543
  -exchange      EXHF   =         0.00000000
  -V(xc)+E(xc)   XCENC  =       463.73350651
  PAW double counting   =      6060.85387329    -6071.66291187
  entropy T*S    EENTRO =         0.01908613
  eigenvalues    EBANDS =      -818.72793463
  atomic energy  EATOM  =     10015.26539877
  Solvation  Ediel_sol  =         0.00000000
  ---------------------------------------------------
  free energy    TOTEN  =      -196.57548695 eV

  energy without entropy =     -196.59457308  energy(sigma->0) =     -196.58025848


--------------------------------------------------------------------------------------------------------




----------------------------------------- Iteration    1(   4)  ---------------------------------------


     EDDAV:  cpu time   12.1434: real time   12.1341
       DOS:  cpu time    0.0209: real time    0.0208
    --------------------------------------------
      LOOP:  cpu time   12.1651: real time   12.2700

 eigenvalue-minimisations  : 11952
 total energy-change (2. order) :-0.1612114E+02  (-0.1570065E+02)
 number of electron     151.0000000 magnetization 
 augmentation part      151.0000000 magnetization 

 Free energy of the ion-electron system (eV)
  ---------------------------------------------------
  alpha Z        PSCENC =       401.59370410
  Ewald energy   TEWEN  =     -7101.95815382
  -Hartree energ DENC   =     -3145.69205543
  -exchange      EXHF   =         0.00000000
  -V(xc)+E(xc)   XCENC  =       463.73350651
  PAW double counting   =      6060.85387329    -6071.66291187
  entropy T*S    EENTRO =        -0.01376544
  eigenvalues    EBANDS =      -834.81622257
  atomic energy  EATOM  =     10015.26539877
  Solvation  Ediel_sol  =         0.00000000
  ---------------------------------------------------
  free energy    TOTEN  =      -212.69662645 eV

  energy without entropy =     -212.68286102  energy(sigma->0) =     -212.69318510


--------------------------------------------------------------------------------------------------------




----------------------------------------- Iteration    1(   5)  ---------------------------------------


     EDDAV:  cpu time   12.7717: real time   12.7617
       DOS:  cpu time    0.0207: real time    0.0207
    CHARGE:  cpu time    0.6105: real time    0.6100
    MIXING:  cpu time    0.0014: real time    0.0014
    --------------------------------------------
      LOOP:  cpu time   13.4053: real time   13.5669

 eigenvalue-minimisations  : 12760
 total energy-change (2. order) :-0.6829678E+00  (-0.6783546E+00)
 number of electron     150.9999757 magnetization 
 augmentation part       25.0338654 magnetization 

 Broyden mixing:
  rms(total) = 0.35367E+01    rms(broyden)= 0.35322E+01
  rms(prec ) = 0.46306E+01
  weight for this iteration     100.00

 Free energy of the ion-electron system (eV)
  ---------------------------------------------------
  alpha Z        PSCENC =       401.59370410
  Ewald energy   TEWEN  =     -7101.95815382
  -Hartree energ DENC   =     -3145.69205543
  -exchange      EXHF   =         0.00000000
  -V(xc)+E(xc)   XCENC  =       463.73350651
  PAW double counting   =      6060.85387329    -6071.66291187
  entropy T*S    EENTRO =        -0.01534293
  eigenvalues    EBANDS =      -835.49761286
  atomic energy  EATOM  =     10015.26539877
  Solvation  Ediel_sol  =         0.00000000
  ---------------------------------------------------
  free energy    TOTEN  =      -213.37959424 eV

  energy without entropy =     -213.36425131  energy(sigma->0) =     -213.37575851


--------------------------------------------------------------------------------------------------------




----------------------------------------- Iteration    1(   6)  ---------------------------------------


    POTLOK:  cpu time    0.0416: real time    0.0416
    SETDIJ:  cpu time    0.0091: real time    0.0091
     EDDAV:  cpu time   12.1579: real time   12.1486
       DOS:  cpu time    0.0199: real time    0.0199
    CHARGE:  cpu time    0.5419: real time    0.5415
    MIXING:  cpu time    0.0016: real time    0.0016
    --------------------------------------------
      LOOP:  cpu time   12.7731: real time   12.9499

 eigenvalue-minimisations  : 12056
 total energy-change (2. order) : 0.1421874E+02  (-0.2003100E+02)
 number of electron     150.9999803 magnetization 
 augmentation part       28.4280879 magnetization 

 Broyden mixing:
  rms(total) = 0.48711E+01    rms(broyden)= 0.48694E+01
  rms(prec ) = 0.69516E+01
  weight for this iteration     100.00

 eigenvalues of (default mixing * dielectric matrix)
  average eigenvalue GAMMA=   0.3943
  0.3943

 Free energy of the ion-electron system (eV)
  ---------------------------------------------------
  alpha Z        PSCENC =       401.59370410
  Ewald energy   TEWEN  =     -7101.95815382
  -Hartree energ DENC   =     -3286.80075292
  -exchange      EXHF   =         0.00000000
  -V(xc)+E(xc)   XCENC  =       477.08426290
  PAW double counting   =      6582.25915051    -6582.86563247
  entropy T*S    EENTRO =         0.00437827
  eigenvalues    EBANDS =      -703.74321072
  atomic energy  EATOM  =     10015.26539877
  Solvation  Ediel_sol  =         0.00000000
  ---------------------------------------------------
  free energy    TOTEN  =      -199.16085538 eV

  energy without entropy =     -199.16523365  energy(sigma->0) =     -199.16194995


--------------------------------------------------------------------------------------------------------




----------------------------------------- Iteration    1(   7)  ---------------------------------------


    POTLOK:  cpu time    0.0405: real time    0.0405
    SETDIJ:  cpu time    0.0090: real time    0.0090
     EDDAV:  cpu time   11.7433: real time   11.7342
       DOS:  cpu time    0.0204: real time    0.0204
    CHARGE:  cpu time    0.6096: real time    0.6091
    MIXING:  cpu time    0.0016: real time    0.0016
    --------------------------------------------
      LOOP:  cpu time   12.4255: real time   12.5816

 eigenvalue-minimisations  : 11560
 total energy-change (2. order) :-0.3959757E+02  (-0.3552112E+02)
 number of electron     150.9999718 magnetization 
 augmentation part       25.5805335 magnetization 

 Broyden mixing:
  rms(total) = 0.66461E+01    rms(broyden)= 0.66456E+01
  rms(prec ) = 0.98011E+01
  weight for this iteration     100.00

 eigenvalues of (default mixing * dielectric matrix)
  average eigenvalue GAMMA=   0.3827
  0.6178  0.1476

 Free energy of the ion-electron system (eV)
  ---------------------------------------------------
  alpha Z        PSCENC =       401.59370410
  Ewald energy   TEWEN  =     -7101.95815382
  -Hartree energ DENC   =     -3302.62049370
  -exchange      EXHF   =         0.00000000
  -V(xc)+E(xc)   XCENC  =       477.16452034
  PAW double counting   =      6677.57814085    -6687.20950207
  entropy T*S    EENTRO =        -0.09765272
  eigenvalues    EBANDS =      -718.47439195
  atomic energy  EATOM  =     10015.26539877
  Solvation  Ediel_sol  =         0.00000000
  ---------------------------------------------------
  free energy    TOTEN  =      -238.75843020 eV

  energy without entropy =     -238.66077748  energy(sigma->0) =     -238.73401702


--------------------------------------------------------------------------------------------------------




----------------------------------------- Iteration    1(   8)  ---------------------------------------


    POTLOK:  cpu time    0.0392: real time    0.0404
    SETDIJ:  cpu time    0.0090: real time    0.0090
     EDDAV:  cpu time   12.4852: real time   12.4755
       DOS:  cpu time    0.0196: real time    0.0204
    CHARGE:  cpu time    0.6462: real time    0.6457
    MIXING:  cpu time    0.0019: real time    0.0019
    --------------------------------------------
      LOOP:  cpu time   13.2041: real time   13.3039

 eigenvalue-minimisations  : 12448
 total energy-change (2. order) : 0.1633004E+02  (-0.2796788E+02)
 number of electron     150.9999731 magnetization 
 augmentation part       25.3161445 magnetization 

 Broyden mixing:
  rms(total) = 0.63263E+01    rms(broyden)= 0.63261E+01
  rms(prec ) = 0.10437E+02
  weight for this iteration     100.00

 eigenvalues of (default mixing * dielectric matrix)
  average eigenvalue GAMMA=   0.3044
  0.6642  0.1540  0.0951

 Free energy of the ion-electron system (eV)
  ---------------------------------------------------
  alpha Z        PSCENC =       401.59370410
  Ewald energy   TEWEN  =     -7101.95815382
  -Hartree energ DENC   =     -3311.44571813
  -exchange      EXHF   =         0.00000000
  -V(xc)+E(xc)   XCENC  =       477.51737929
  PAW double counting   =      6746.88476751    -6762.16624652
  entropy T*S    EENTRO =        -0.09289594
  eigenvalues    EBANDS =      -688.02662515
  atomic energy  EATOM  =     10015.26539877
  Solvation  Ediel_sol  =         0.00000000
  ---------------------------------------------------
  free energy    TOTEN  =      -222.42838990 eV

  energy without entropy =     -222.33549395  energy(sigma->0) =     -222.40516591


--------------------------------------------------------------------------------------------------------




----------------------------------------- Iteration    1(   9)  ---------------------------------------


    POTLOK:  cpu time    0.0412: real time    0.0411
    SETDIJ:  cpu time    0.0091: real time    0.0090
     EDDAV:  cpu time   12.5517: real time   12.5419
       DOS:  cpu time    0.0220: real time    0.0220
    CHARGE:  cpu time    0.6501: real time    0.6495
    MIXING:  cpu time    0.0018: real time    0.0018
    --------------------------------------------
      LOOP:  cpu time   13.2768: real time   13.3762

 eigenvalue-minimisations  : 12568
 total energy-change (2. order) : 0.3322280E+02  (-0.6789252E+01)
 number of electron     150.9999752 magnetization 
 augmentation part       25.0094446 magnetization 

 Broyden mixing:
  rms(total) = 0.37621E+01    rms(broyden)= 0.37616E+01
  rms(prec ) = 0.56342E+01
  weight for this iteration     100.00

 eigenvalues of (default mixing * dielectric matrix)
  average eigenvalue GAMMA=   0.2463
  0.6661  0.1080  0.1080  0.1029

 Free energy of the ion-electron system (eV)
  ---------------------------------------------------
  alpha Z        PSCENC =       401.59370410
  Ewald energy   TEWEN  =     -7101.95815382
  -Hartree energ DENC   =     -3314.20372720
  -exchange      EXHF   =         0.00000000
  -V(xc)+E(xc)   XCENC  =       477.73394643
  PAW double counting   =      6771.70689034    -6788.35679470
  entropy T*S    EENTRO =        -0.12595239
  eigenvalues    EBANDS =      -650.86089647
  atomic energy  EATOM  =     10015.26539877
  Solvation  Ediel_sol  =         0.00000000
  ---------------------------------------------------
  free energy    TOTEN  =      -189.20558494 eV

  energy without entropy =     -189.07963255  energy(sigma->0) =     -189.17409684


--------------------------------------------------------------------------------------------------------




----------------------------------------- Iteration    1(  10)  ---------------------------------------


    POTLOK:  cpu time    0.0402: real time    0.0402
    SETDIJ:  cpu time    0.0090: real time    0.0090
     EDDAV:  cpu time   13.0860: real time   13.0758
       DOS:  cpu time    0.0215: real time    0.0215
    CHARGE:  cpu time    0.6377: real time    0.6372
    MIXING:  cpu time    0.0019: real time    0.0019
    --------------------------------------------
      LOOP:  cpu time   13.7973: real time   13.9357

 eigenvalue-minimisations  : 13168
 total energy-change (2. order) : 0.1969706E+01  (-0.1054676E+01)
 number of electron     150.9999772 magnetization 
 augmentation part       25.0491319 magnetization 

 Broyden mixing:
  rms(total) = 0.40926E+01    rms(broyden)= 0.40918E+01
  rms(prec ) = 0.64704E+01
  weight for this iteration     100.00

 eigenvalues of (default mixing * dielectric matrix)
  average eigenvalue GAMMA=   0.2889
  0.6612  0.3255  0.3255  0.0961  0.0364

 Free energy of the ion-electron system (eV)
  ---------------------------------------------------
  alpha Z        PSCENC =       401.59370410
  Ewald energy   TEWEN  =     -7101.95815382
  -Hartree energ DENC   =     -3314.18253970
  -exchange      EXHF   =         0.00000000
  -V(xc)+E(xc)   XCENC  =       477.73270682
  PAW double counting   =      6776.87646528    -6793.86979613
  entropy T*S    EENTRO =         0.01582139
  eigenvalues    EBANDS =      -648.70948603
  atomic energy  EATOM  =     10015.26539877
  Solvation  Ediel_sol  =         0.00000000
  ---------------------------------------------------
  free energy    TOTEN  =      -187.23587932 eV

  energy without entropy =     -187.25170071  energy(sigma->0) =     -187.23983466


--------------------------------------------------------------------------------------------------------




----------------------------------------- Iteration    1(  11)  ---------------------------------------


    POTLOK:  cpu time    0.0407: real time    0.0407
    SETDIJ:  cpu time    0.0091: real time    0.0091
     EDDAV:  cpu time   14.3574: real time   14.3462
       DOS:  cpu time    0.0222: real time    0.0222
    CHARGE:  cpu time    0.6452: real time    0.6447
    MIXING:  cpu time    0.0019: real time    0.0019
    --------------------------------------------
      LOOP:  cpu time   15.0775: real time   15.1738

 eigenvalue-minimisations  : 14640
 total energy-change (2. order) :-0.2771202E+01  (-0.8575739E+01)
 number of electron     150.9999772 magnetization 
 augmentation part       25.1351746 magnetization 

 Broyden mixing:
  rms(total) = 0.42974E+01    rms(broyden)= 0.42970E+01
  rms(prec ) = 0.67380E+01
  weight for this iteration     100.00

 eigenvalues of (default mixing * dielectric matrix)
  average eigenvalue GAMMA=   0.3394
  0.9703  0.4669  0.2331  0.2331  0.0963  0.0364

 Free energy of the ion-electron system (eV)
  ---------------------------------------------------
  alpha Z        PSCENC =       401.59370410
  Ewald energy   TEWEN  =     -7101.95815382
  -Hartree energ DENC   =     -3313.31928234
  -exchange      EXHF   =         0.00000000
  -V(xc)+E(xc)   XCENC  =       477.74994721
  PAW double counting   =      6824.07784175    -6840.05650951
  entropy T*S    EENTRO =         0.02382058
  eigenvalues    EBANDS =      -653.38384816
  atomic energy  EATOM  =     10015.26539877
  Solvation  Ediel_sol  =         0.00000000
  ---------------------------------------------------
  free energy    TOTEN  =      -190.00708140 eV

  energy without entropy =     -190.03090199  energy(sigma->0) =     -190.01303655


--------------------------------------------------------------------------------------------------------




----------------------------------------- Iteration    1(  12)  ---------------------------------------


    POTLOK:  cpu time    0.0403: real time    0.0406
    SETDIJ:  cpu time    0.0089: real time    0.0089
     EDDAV:  cpu time   12.9960: real time   12.9861
       DOS:  cpu time    0.0218: real time    0.0218
    CHARGE:  cpu time    0.6234: real time    0.6229
    MIXING:  cpu time    0.0022: real time    0.0022
    --------------------------------------------
      LOOP:  cpu time   13.6938: real time   13.7993

 eigenvalue-minimisations  : 13056
 total energy-change (2. order) : 0.5366229E+01  (-0.2428566E+01)
 number of electron     150.9999802 magnetization 
 augmentation part       25.4437290 magnetization 

 Broyden mixing:
  rms(total) = 0.89357E+00    rms(broyden)= 0.88975E+00
  rms(prec ) = 0.10992E+01
  weight for this iteration     100.00

 eigenvalues of (default mixing * dielectric matrix)
  average eigenvalue GAMMA=   0.3600
  1.1123  0.4045  0.4045  0.2329  0.2329  0.0961  0.0365

 Free energy of the ion-electron system (eV)
  ---------------------------------------------------
  alpha Z        PSCENC =       401.59370410
  Ewald energy   TEWEN  =     -7101.95815382
  -Hartree energ DENC   =     -3317.31068183
  -exchange      EXHF   =         0.00000000
  -V(xc)+E(xc)   XCENC  =       478.41911859
  PAW double counting   =      6872.90268708    -6888.93044683
  entropy T*S    EENTRO =        -0.00769480
  eigenvalues    EBANDS =      -644.61478402
  atomic energy  EATOM  =     10015.26539877
  Solvation  Ediel_sol  =         0.00000000
  ---------------------------------------------------
  free energy    TOTEN  =      -184.64085276 eV

  energy without entropy =     -184.63315796  energy(sigma->0) =     -184.63892906


--------------------------------------------------------------------------------------------------------




----------------------------------------- Iteration    1(  13)  ---------------------------------------


    POTLOK:  cpu time    0.0410: real time    0.0412
    SETDIJ:  cpu time    0.0092: real time    0.0092
     EDDAV:  cpu time   12.7663: real time   12.7562
       DOS:  cpu time    0.0224: real time    0.0224
    CHARGE:  cpu time    0.6215: real time    0.6210
    MIXING:  cpu time    0.0024: real time    0.0024
    --------------------------------------------
      LOOP:  cpu time   13.4640: real time   13.5674

 eigenvalue-minimisations  : 12808
 total energy-change (2. order) : 0.5078251E-01  (-0.2116343E+00)
 number of electron     150.9999794 magnetization 
 augmentation part       25.4979074 magnetization 

 Broyden mixing:
  rms(total) = 0.17238E+01    rms(broyden)= 0.17235E+01
  rms(prec ) = 0.25720E+01
  weight for this iteration     100.00

 eigenvalues of (default mixing * dielectric matrix)
  average eigenvalue GAMMA=   0.4977
  1.5812  0.9306  0.4497  0.4497  0.2188  0.2188  0.0962  0.0365

 Free energy of the ion-electron system (eV)
  ---------------------------------------------------
  alpha Z        PSCENC =       401.59370410
  Ewald energy   TEWEN  =     -7101.95815382
  -Hartree energ DENC   =     -3317.67283375
  -exchange      EXHF   =         0.00000000
  -V(xc)+E(xc)   XCENC  =       478.60557457
  PAW double counting   =      6907.69304101    -6924.92149365
  entropy T*S    EENTRO =        -0.01664668
  eigenvalues    EBANDS =      -643.17866080
  atomic energy  EATOM  =     10015.26539877
  Solvation  Ediel_sol  =         0.00000000
  ---------------------------------------------------
  free energy    TOTEN  =      -184.59007025 eV

  energy without entropy =     -184.57342357  energy(sigma->0) =     -184.58590858


--------------------------------------------------------------------------------------------------------




----------------------------------------- Iteration    1(  14)  ---------------------------------------


    POTLOK:  cpu time    0.0405: real time    0.0405
    SETDIJ:  cpu time    0.0090: real time    0.0090
     EDDAV:  cpu time   12.4654: real time   12.4557
       DOS:  cpu time    0.0216: real time    0.0216
    CHARGE:  cpu time    0.5753: real time    0.5748
    MIXING:  cpu time    0.0024: real time    0.0024
    --------------------------------------------
      LOOP:  cpu time   13.1153: real time   13.2188

 eigenvalue-minimisations  : 12448
 total energy-change (2. order) : 0.2844416E+00  (-0.4190395E+00)
 number of electron     150.9999800 magnetization 
 augmentation part       25.5312088 magnetization 

 Broyden mixing:
  rms(total) = 0.64880E+00    rms(broyden)= 0.64759E+00
  rms(prec ) = 0.86398E+00
  weight for this iteration     100.00

 eigenvalues of (default mixing * dielectric matrix)
  average eigenvalue GAMMA=   0.5879
  2.1617  0.9946  0.7846  0.4357  0.3420  0.2200  0.2200  0.0962  0.0365

 Free energy of the ion-electron system (eV)
  ---------------------------------------------------
  alpha Z        PSCENC =       401.59370410
  Ewald energy   TEWEN  =     -7101.95815382
  -Hartree energ DENC   =     -3318.84872024
  -exchange      EXHF   =         0.00000000
  -V(xc)+E(xc)   XCENC  =       478.88097132
  PAW double counting   =      6979.06154177    -6995.81986141
  entropy T*S    EENTRO =        -0.00454707
  eigenvalues    EBANDS =      -642.47596211
  atomic energy  EATOM  =     10015.26539877
  Solvation  Ediel_sol  =         0.00000000
  ---------------------------------------------------
  free energy    TOTEN  =      -184.30562869 eV

  energy without entropy =     -184.30108161  energy(sigma->0) =     -184.30449192


--------------------------------------------------------------------------------------------------------




----------------------------------------- Iteration    1(  15)  ---------------------------------------


    POTLOK:  cpu time    0.0408: real time    0.0411
    SETDIJ:  cpu time    0.0091: real time    0.0091
     EDDAV:  cpu time   12.9202: real time   12.9102
       DOS:  cpu time    0.0206: real time    0.0206
    CHARGE:  cpu time    0.5809: real time    0.5805
    MIXING:  cpu time    0.0026: real time    0.0026
    --------------------------------------------
      LOOP:  cpu time   13.5763: real time   13.6858

 eigenvalue-minimisations  : 13000
 total energy-change (2. order) : 0.8668544E-01  (-0.5805454E-01)
 number of electron     150.9999800 magnetization 
 augmentation part       25.5432318 magnetization 

 Broyden mixing:
  rms(total) = 0.44217E+00    rms(broyden)= 0.44205E+00
  rms(prec ) = 0.56708E+00
  weight for this iteration     100.00

 eigenvalues of (default mixing * dielectric matrix)
  average eigenvalue GAMMA=   0.6239
  2.4253  0.9757  0.8369  0.6368  0.3957  0.3957  0.2199  0.2199  0.0962  0.0365

 Free energy of the ion-electron system (eV)
  ---------------------------------------------------
  alpha Z        PSCENC =       401.59370410
  Ewald energy   TEWEN  =     -7101.95815382
  -Hartree energ DENC   =     -3319.91582266
  -exchange      EXHF   =         0.00000000
  -V(xc)+E(xc)   XCENC  =       479.11558883
  PAW double counting   =      7016.73058746    -7034.26849192
  entropy T*S    EENTRO =         0.01461131
  eigenvalues    EBANDS =      -640.79636531
  atomic energy  EATOM  =     10015.26539877
  Solvation  Ediel_sol  =         0.00000000
  ---------------------------------------------------
  free energy    TOTEN  =      -184.21894325 eV

  energy without entropy =     -184.23355456  energy(sigma->0) =     -184.22259607


--------------------------------------------------------------------------------------------------------




----------------------------------------- Iteration    1(  16)  ---------------------------------------


    POTLOK:  cpu time    0.0402: real time    0.0403
    SETDIJ:  cpu time    0.0090: real time    0.0090
     EDDAV:  cpu time   12.8712: real time   12.8614
       DOS:  cpu time    0.0214: real time    0.0214
    CHARGE:  cpu time    0.5903: real time    0.5899
    MIXING:  cpu time    0.0030: real time    0.0030
    --------------------------------------------
      LOOP:  cpu time   13.5353: real time   13.6640

 eigenvalue-minimisations  : 12896
 total energy-change (2. order) : 0.1270103E-01  (-0.2294976E-01)
 number of electron     150.9999800 magnetization 
 augmentation part       25.5109024 magnetization 

 Broyden mixing:
  rms(total) = 0.37615E+00    rms(broyden)= 0.37605E+00
  rms(prec ) = 0.47191E+00
  weight for this iteration     100.00

 eigenvalues of (default mixing * dielectric matrix)
  average eigenvalue GAMMA=   0.6506
  2.5485  1.0842  1.0842  0.5425  0.5425  0.4224  0.3594  0.2198  0.2198  0.0962
  0.0365

 Free energy of the ion-electron system (eV)
  ---------------------------------------------------
  alpha Z        PSCENC =       401.59370410
  Ewald energy   TEWEN  =     -7101.95815382
  -Hartree energ DENC   =     -3321.21782943
  -exchange      EXHF   =         0.00000000
  -V(xc)+E(xc)   XCENC  =       479.23219504
  PAW double counting   =      7028.97167551    -7046.43815157
  entropy T*S    EENTRO =         0.01228673
  eigenvalues    EBANDS =      -639.66736756
  atomic energy  EATOM  =     10015.26539877
  Solvation  Ediel_sol  =         0.00000000
  ---------------------------------------------------
  free energy    TOTEN  =      -184.20624222 eV

  energy without entropy =     -184.21852896  energy(sigma->0) =     -184.20931391


--------------------------------------------------------------------------------------------------------




----------------------------------------- Iteration    1(  17)  ---------------------------------------


    POTLOK:  cpu time    0.0416: real time    0.0417
    SETDIJ:  cpu time    0.0091: real time    0.0091
     EDDAV:  cpu time   12.3729: real time   12.3630
       DOS:  cpu time    0.0214: real time    0.0213
    CHARGE:  cpu time    0.5863: real time    0.5859
    MIXING:  cpu time    0.0030: real time    0.0030
    --------------------------------------------
      LOOP:  cpu time   13.0356: real time   13.5918

 eigenvalue-minimisations  : 12256
 total energy-change (2. order) :-0.1795167E-01  (-0.1491977E-01)
 number of electron     150.9999799 magnetization 
 augmentation part       25.5097890 magnetization 

 Broyden mixing:
  rms(total) = 0.35870E+00    rms(broyden)= 0.35858E+00
  rms(prec ) = 0.50452E+00
  weight for this iteration     100.00

 eigenvalues of (default mixing * dielectric matrix)
  average eigenvalue GAMMA=   0.6557
  2.5607  1.2071  1.2071  0.5652  0.5652  0.4691  0.3610  0.3610  0.2199  0.2199
  0.0962  0.0365

 Free energy of the ion-electron system (eV)
  ---------------------------------------------------
  alpha Z        PSCENC =       401.59370410
  Ewald energy   TEWEN  =     -7101.95815382
  -Hartree energ DENC   =     -3322.03988431
  -exchange      EXHF   =         0.00000000
  -V(xc)+E(xc)   XCENC  =       479.33080784
  PAW double counting   =      7032.42904128    -7049.87752966
  entropy T*S    EENTRO =         0.01910810
  eigenvalues    EBANDS =      -638.98668619
  atomic energy  EATOM  =     10015.26539877
  Solvation  Ediel_sol  =         0.00000000
  ---------------------------------------------------
  free energy    TOTEN  =      -184.22419389 eV

  energy without entropy =     -184.24330199  energy(sigma->0) =     -184.22897091


--------------------------------------------------------------------------------------------------------




----------------------------------------- Iteration    1(  18)  ---------------------------------------


    POTLOK:  cpu time    0.0405: real time    0.0407
    SETDIJ:  cpu time    0.0091: real time    0.0091
     EDDAV:  cpu time   12.6901: real time   12.6802
       DOS:  cpu time    0.0216: real time    0.0216
    CHARGE:  cpu time    0.5827: real time    0.5823
    MIXING:  cpu time    0.0032: real time    0.0032
    --------------------------------------------
      LOOP:  cpu time   13.3484: real time   13.4576

 eigenvalue-minimisations  : 12696
 total energy-change (2. order) :-0.8703680E-02  (-0.1021562E-02)
 number of electron     150.9999800 magnetization 
 augmentation part       25.5085931 magnetization 

 Broyden mixing:
  rms(total) = 0.30853E+00    rms(broyden)= 0.30851E+00
  rms(prec ) = 0.43153E+00
  weight for this iteration     100.00

 eigenvalues of (default mixing * dielectric matrix)
  average eigenvalue GAMMA=   0.6866
  2.5572  1.3371  1.3371  0.6985  0.6985  0.2199  0.2199  0.5175  0.4270  0.4270
  0.3538  0.0962  0.0365

 Free energy of the ion-electron system (eV)
  ---------------------------------------------------
  alpha Z        PSCENC =       401.59370410
  Ewald energy   TEWEN  =     -7101.95815382
  -Hartree energ DENC   =     -3322.47106978
  -exchange      EXHF   =         0.00000000
  -V(xc)+E(xc)   XCENC  =       479.38190570
  PAW double counting   =      7032.41463503    -7049.79561029
  entropy T*S    EENTRO =         0.01341530
  eigenvalues    EBANDS =      -638.67712258
  atomic energy  EATOM  =     10015.26539877
  Solvation  Ediel_sol  =         0.00000000
  ---------------------------------------------------
  free energy    TOTEN  =      -184.23289757 eV

  energy without entropy =     -184.24631287  energy(sigma->0) =     -184.23625139


--------------------------------------------------------------------------------------------------------




----------------------------------------- Iteration    1(  19)  ---------------------------------------


    POTLOK:  cpu time    0.0402: real time    0.0402
    SETDIJ:  cpu time    0.0091: real time    0.0091
     EDDAV:  cpu time   12.8969: real time   12.8867
       DOS:  cpu time    0.0217: real time    0.0216
    CHARGE:  cpu time    0.5789: real time    0.5785
    MIXING:  cpu time    0.0033: real time    0.0033
    --------------------------------------------
      LOOP:  cpu time   13.5512: real time   13.6575

 eigenvalue-minimisations  : 12952
 total energy-change (2. order) :-0.1708389E-01  (-0.5128933E-03)
 number of electron     150.9999800 magnetization 
 augmentation part       25.5092096 magnetization 

 Broyden mixing:
  rms(total) = 0.30453E+00    rms(broyden)= 0.30452E+00
  rms(prec ) = 0.45036E+00
  weight for this iteration     100.00

 eigenvalues of (default mixing * dielectric matrix)
  average eigenvalue GAMMA=   0.7202
  2.5977  1.4480  1.4480  0.9031  0.9031  0.0365  0.0962  0.2199  0.2199  0.5284
  0.5284  0.4287  0.3628  0.3628

 Free energy of the ion-electron system (eV)
  ---------------------------------------------------
  alpha Z        PSCENC =       401.59370410
  Ewald energy   TEWEN  =     -7101.95815382
  -Hartree energ DENC   =     -3322.71547092
  -exchange      EXHF   =         0.00000000
  -V(xc)+E(xc)   XCENC  =       479.42536087
  PAW double counting   =      7031.48783017    -7048.72652562
  entropy T*S    EENTRO =         0.01597302
  eigenvalues    EBANDS =      -638.63809803
  atomic energy  EATOM  =     10015.26539877
  Solvation  Ediel_sol  =         0.00000000
  ---------------------------------------------------
  free energy    TOTEN  =      -184.24998146 eV

  energy without entropy =     -184.26595448  energy(sigma->0) =     -184.25397471


[...]
     78       4.0546     -0.00410
     79       4.1993      0.00589
     80       4.2324      0.00367
     81       4.5679      0.00000
     82       4.6496      0.00000
     83       4.7405      0.00000
     84       4.8423      0.00000
     85       8.9274      0.00000
     86       9.3461      0.00000
     87       9.4480      0.00000
     88       9.6452      0.00000
     89       9.7601      0.00000
     90       9.9806      0.00000
     91      10.1118      0.00000
     92      10.1529      0.00000
     93      10.3574      0.00000
     94      10.5028      0.00000
     95      10.6123      0.00000

 k-point    46 :      -0.3333    0.4000    0.5000
  band No.  band energies     occupation 
      1     -18.8459      2.00000
      2     -18.7225      2.00000
      3     -18.6037      2.00000
      4     -18.2084      2.00000
      5     -16.7961      2.00000
      6     -16.6998      2.00000
      7     -16.6316      2.00000
      8     -16.4215      2.00000
      9     -16.3698      2.00000
     10     -16.2480      2.00000
     11     -16.1841      2.00000
     12     -16.1503      2.00000
     13     -16.1428      2.00000
     14     -16.0418      2.00000
     15     -15.9154      2.00000
     16     -15.6752      2.00000
     17      -6.1622      2.00000
     18      -6.0664      2.00000
     19      -6.0492      2.00000
     20      -5.8284      2.00000
     21      -3.9584      2.00000
     22      -3.9179      2.00000
     23      -3.8772      2.00000
     24      -3.8276      2.00000
     25      -3.7584      2.00000
     26      -3.6672      2.00000
     27      -3.6256      2.00000
     28      -3.5488      2.00000
     29      -3.3605      2.00000
     30      -3.2615      2.00000
     31      -3.1528      2.00000
     32      -2.9369      2.00000
     33      -2.5591      2.00000
     34      -2.4989      2.00000
     35      -2.4002      2.00000
     36      -2.3105      2.00000
     37      -1.9984      2.00000
     38      -1.8418      2.00000
     39      -1.6790      2.00000
     40      -1.4414      2.00000
     41      -1.3811      2.00000
     42      -1.3326      2.00000
     43      -1.2582      2.00000
     44      -1.1027      2.00000
     45      -1.0106      2.00000
     46      -0.9512      2.00000
     47      -0.9036      2.00000
     48      -0.8323      2.00000
     49      -0.6500      2.00000
     50      -0.5106      2.00000
     51      -0.4260      2.00000
     52      -0.1916      2.00000
     53      -0.0761      2.00000
     54      -0.0161      2.00000
     55       0.0420      2.00000
     56       0.2246      2.00000
     57       0.2778      2.00000
     58       0.3310      2.00000
     59       0.4297      2.00000
     60       0.6671      2.00000
     61       0.7366      2.00000
     62       0.8496      2.00000
     63       1.0680      2.00000
     64       1.1900      2.00000
     65       3.3079      1.99034
     66       3.3299      1.99028
     67       3.3517      1.99204
     68       3.3694      1.99541
     69       3.4122      2.01363
     70       3.4422      2.03600
     71       3.4635      2.05559
     72       3.4954      2.08514
     73       3.5314      2.10322
     74       3.5558      2.09274
     75       3.6426      1.76237
     76       3.6549      1.67043
     77       3.9725     -0.06797
     78       4.0546     -0.00410
     79       4.1992      0.00589
     80       4.2324      0.00366
     81       4.5679      0.00000
     82       4.6496      0.00000
     83       4.7405      0.00000
     84       4.8423      0.00000
     85       8.9274      0.00000
     86       9.3461      0.00000
     87       9.4480      0.00000
     88       9.6452      0.00000
     89       9.7601      0.00000
     90       9.9805      0.00000
     91      10.1119      0.00000
     92      10.1529      0.00000
     93      10.3574      0.00000
     94      10.5029      0.00000
     95      10.6122      0.00000


--------------------------------------------------------------------------------------------------------


 soft charge-density along one line, spin component           1
         0         1         2         3         4         5         6         7         8         9
 total charge-density along one line
 
 pseudopotential strength for first ion, spin component:           1
  1.173  -0.044   0.000  -0.004  -0.007
 -0.044  -0.053  -0.000   0.001   0.001
  0.000  -0.000  -0.354   0.000  -0.000
 -0.004   0.001   0.000  -0.354  -0.001
 -0.007   0.001  -0.000  -0.001  -0.355
 total augmentation occupancy for first ion, spin component:           1
  0.633  -0.078  -0.000   0.054   0.098
 -0.078   0.011   0.000  -0.008  -0.014
 -0.000   0.000   0.024  -0.000  -0.000
  0.054  -0.008  -0.000   0.115  -0.019
  0.098  -0.014  -0.000  -0.019   0.075


------------------------ aborting loop because EDIFF is reached ----------------------------------------


    CHARGE:  cpu time    0.5777: real time    0.5773
    FORLOC:  cpu time    0.0143: real time    0.0143
    FORNL :  cpu time    2.3340: real time    2.3322
    STRESS:  cpu time    6.9996: real time    6.9940
    FORCOR:  cpu time    0.0464: real time    0.0754
    FORHAR:  cpu time    0.0208: real time    0.0208
    MIXING:  cpu time    0.0091: real time    0.0091
    OFIELD:  cpu time    0.0000: real time    0.0000

  FORCE on cell =-STRESS in cart. coord.  units (eV):
  Direction    XX          YY          ZZ          XY          YZ          ZX
  --------------------------------------------------------------------------------------
  Alpha Z   401.59370   401.59370   401.59370
  Ewald   -2477.72936 -2289.67720 -2317.82015    -0.04870     0.00606   -66.60377
  Hartree   961.07690  1297.32873  1083.98726    -0.01637     0.00729   -32.63557
  E(xc)    -715.31848  -714.97748  -715.72278    -0.00006     0.00007     0.02809
  Local    -730.94336 -1275.37008 -1001.74515     0.06190    -0.01242    96.25804
  n-local  -306.76193  -319.22923  -307.27447    -0.00055     0.00048     0.99410
  augment   222.49620   221.68483   223.69845     0.00028    -0.00042    -0.87921
  Kinetic  2622.66568  2651.29449  2617.33220     0.00372    -0.00138     3.36011
  Fock        0.00000     0.00000     0.00000     0.00000     0.00000     0.00000
  -------------------------------------------------------------------------------------
  Total     -22.92065   -27.35223   -15.95093     0.00022    -0.00034     0.52178
  in kB    -121.47663  -144.96348   -84.53799     0.00118    -0.00179     2.76538
  external pressure =     -116.99 kB  Pullay stress =        0.00 kB


 VOLUME and BASIS-vectors are now :
 -----------------------------------------------------------------------------
  energy-cutoff  :      441.00
  volume of cell :      302.30
      direct lattice vectors                 reciprocal lattice vectors
    10.450668000  0.000000000  0.000000000     0.095687663  0.000000000  0.000000000
     0.000000000  6.087351000  0.000000000     0.000000000  0.164275068  0.000000000
     0.000000000  0.000000000  4.751955000     0.000000000  0.000000000  0.210439703

  length of vectors
    10.450668000  6.087351000  4.751955000     0.095687663  0.164275068  0.210439703


 FORCES acting on ions
    electron-ion (+dipol)            ewald-force                    non-local-force                 convergence-correction
 -----------------------------------------------------------------------------------------------
   0.886E+01 -.826E-02 0.648E+00   -.774E+01 0.782E-02 -.153E-01   -.130E+01 0.552E-03 -.722E+00   0.335E-03 -.841E-05 0.811E-04
   -.176E+01 -.131E+00 0.191E+00   0.170E+01 0.187E+00 -.156E+00   0.408E-01 -.538E-01 -.339E-01   -.334E-03 -.777E-04 0.391E-04
   -.176E+01 0.131E+00 0.191E+00   0.170E+01 -.186E+00 -.157E+00   0.407E-01 0.538E-01 -.340E-01   -.325E-03 0.781E-04 0.405E-04
   0.125E+03 -.179E-01 -.945E+02   -.129E+03 0.163E-01 0.126E+03   0.422E+01 0.169E-02 -.309E+02   0.508E-02 0.717E-04 0.223E-02
   -.444E+02 0.103E+03 -.433E+02   0.353E+02 -.123E+03 0.560E+02   0.916E+01 0.208E+02 -.127E+02   0.862E-04 0.133E-02 -.186E-02
   -.444E+02 -.103E+03 -.433E+02   0.353E+02 0.123E+03 0.561E+02   0.916E+01 -.208E+02 -.127E+02   -.191E-03 -.716E-04 -.106E-02
   -.121E+03 0.193E-01 0.861E+02   0.130E+03 -.187E-01 -.119E+03   -.880E+01 -.114E-02 0.332E+02   0.143E-02 0.269E-03 -.101E-02
   -.526E+02 0.374E-01 -.101E+03   0.830E+02 -.410E-01 0.117E+03   -.304E+02 0.357E-02 -.161E+02   -.699E-03 -.967E-05 -.127E-02
   -.102E+03 -.781E-02 -.928E+02   0.107E+03 0.787E-02 0.125E+03   -.498E+01 0.916E-03 -.317E+02   -.475E-04 -.500E-03 -.255E-02
   0.419E+02 0.103E+03 0.473E+02   -.311E+02 -.127E+03 -.612E+02   -.108E+02 0.236E+02 0.140E+02   -.286E-02 0.520E-02 -.972E-03
   0.315E+01 -.102E+03 -.469E+02   0.101E+02 0.127E+03 0.604E+02   -.132E+02 -.248E+02 -.134E+02   -.899E-03 0.267E-03 0.174E-04
   -.563E+01 0.917E+02 0.468E+02   -.810E+01 -.116E+03 -.608E+02   0.137E+02 0.241E+02 0.140E+02   -.187E-02 -.260E-02 -.399E-03
   -.566E+01 -.917E+02 0.468E+02   -.807E+01 0.116E+03 -.608E+02   0.137E+02 -.241E+02 0.140E+02   -.180E-02 0.237E-02 -.714E-03
   0.785E+02 -.352E-01 0.925E+02   -.108E+03 0.380E-01 -.102E+03   0.297E+02 -.276E-02 0.928E+01   0.452E-03 -.107E-03 -.453E-03
   0.686E+02 0.111E-01 -.948E+02   -.979E+02 -.853E-02 0.108E+03   0.293E+02 -.154E-02 -.131E+02   -.392E-02 -.241E-03 -.528E-03
   -.904E+02 -.121E-01 0.920E+02   0.120E+03 0.122E-01 -.104E+03   -.300E+02 -.854E-03 0.121E+02   -.294E-02 0.148E-03 -.344E-04
   0.933E+02 0.691E-02 0.931E+02   -.992E+02 -.654E-02 -.125E+03   0.585E+01 -.483E-03 0.317E+02   -.217E-02 -.857E-04 -.104E-02
   0.318E+01 0.102E+03 -.470E+02   0.100E+02 -.127E+03 0.604E+02   -.132E+02 0.248E+02 -.134E+02   -.817E-03 -.338E-03 -.161E-03
   0.419E+02 -.103E+03 0.473E+02   -.311E+02 0.127E+03 -.612E+02   -.108E+02 -.236E+02 0.140E+02   -.276E-02 -.480E-02 -.115E-02
   0.547E+02 -.540E-02 -.915E+01   -.561E+02 0.709E-02 0.110E+02   0.141E+01 -.137E-02 -.200E+01   0.244E-02 0.391E-04 -.156E-02
   -.287E+02 -.539E-02 -.206E+02   0.299E+02 0.490E-02 0.211E+02   -.117E+01 0.111E-02 -.443E+00   -.192E-02 -.579E-04 -.618E-03
   0.234E+02 0.374E-02 0.220E+02   -.244E+02 -.313E-02 -.225E+02   0.965E+00 -.305E-03 0.450E+00   -.161E-02 -.933E-04 -.236E-03
   -.413E+02 0.983E-02 0.121E+01   0.454E+02 -.110E-01 -.591E+01   -.406E+01 0.236E-03 0.471E+01   0.289E-03 0.774E-05 -.107E-02
   -.826E+02 -.199E-01 -.155E+02   0.822E+02 0.203E-01 0.164E+02   0.330E+00 -.387E-04 -.846E+00   0.720E-03 -.376E-03 -.126E-02
   0.815E+02 0.224E-01 -.236E+02   -.786E+02 -.224E-01 0.249E+02   -.299E+01 -.607E-03 -.124E+01   0.179E-02 0.447E-03 0.182E-02
   -.665E+02 -.641E-02 0.370E+02   0.648E+02 0.613E-02 -.375E+02   0.170E+01 0.182E-03 0.523E+00   0.174E-04 0.163E-03 -.188E-02
   0.755E+02 0.328E-01 0.200E+02   -.773E+02 -.319E-01 -.207E+02   0.185E+01 -.630E-03 0.763E+00   0.646E-03 -.239E-03 0.194E-02
 -----------------------------------------------------------------------------------------------
   0.106E+02 0.344E-02 0.847E+00   0.114E-12 -.743E-14 -.128E-12   -.106E+02 -.323E-02 -.851E+00   -.119E-01 0.781E-03 -.137E-01
 
 
 POSITION                                       TOTAL-FORCE (eV/Angst)
 -----------------------------------------------------------------------------------
     -0.42600      1.52204     -0.23836        -0.177344      0.000064     -0.087987
      5.21680      3.05475      2.37880        -0.013427      0.001778      0.001208
      5.21681     -0.01109      2.37878        -0.013456     -0.001896      0.001271
      1.25260      1.52171      3.59497        -0.043541      0.000185      0.105762
      8.63486      3.33607      3.46010         0.029409     -0.009473      0.027365
      8.63499      5.79527      3.46019         0.030269      0.009259      0.025696
      9.17979      4.56568      1.20533        -0.020474     -0.000309      0.033041
      0.44884      4.56553      3.06108        -0.007779     -0.000067     -0.022810
      4.09700      4.56542      1.18396         0.032130      0.000434      0.009023
      1.92136      0.30996      1.36156         0.029558      0.033123      0.047513
      7.04309      2.75925      1.04498        -0.007680     -0.002668      0.002535
      3.41716      3.32139      3.71457         0.019427     -0.003545      0.013139
      3.41718      5.80948      3.71454         0.019403      0.003594      0.013573
     10.09434      1.52185      1.66693        -0.014110     -0.000101     -0.072785
      4.82843      1.52191      0.89808        -0.018905      0.000720     -0.000257
      5.62272      4.56547      3.86062         0.016624     -0.000710      0.000687
      6.34685      1.52189      3.57308        -0.003951     -0.000235      0.004283
      7.04306      0.28450      1.04498        -0.007653      0.002218      0.002586
      1.92143      2.73342      1.36159         0.029657     -0.032302      0.047286
      1.14097      1.52172      2.05658         0.064786      0.000327     -0.150618
      4.14959      4.56543      4.38326         0.028133      0.000526      0.009170
      6.29991      1.52189      0.37417        -0.000429      0.000180     -0.011868
      9.41283      4.56566      2.71998         0.045095     -0.000953      0.008501
      8.08612      1.52192      2.48931        -0.013985     -0.000012     -0.028132
      7.66631      4.56565      0.02434        -0.008990     -0.000192      0.012388
      2.86015      1.52170      4.74435        -0.020411      0.000027      0.021120
      2.33151      4.56545      2.25766         0.027644      0.000028     -0.011689
 -----------------------------------------------------------------------------------
    total drift:                               -0.013564      0.000991     -0.017053


--------------------------------------------------------------------------------------------------------



  FREE ENERGIE OF THE ION-ELECTRON SYSTEM (eV)
  ---------------------------------------------------
  free  energy   TOTEN  =      -184.99950332 eV

  energy  without entropy=     -185.00324544  energy(sigma->0) =     -185.00043885
 
 d Force = 0.2158465E-02[ 0.138E-02, 0.293E-02]  d Energy = 0.2159519E-02-0.105E-05
 d Force = 0.2759777E+00[ 0.270E+00, 0.282E+00]  d Ewald  = 0.2759755E+00 0.219E-05


--------------------------------------------------------------------------------------------------------


    POTLOK:  cpu time    0.0470: real time    0.0956


--------------------------------------------------------------------------------------------------------


  energy of chain is (eV)         0.000000 for this image         0.000000
  tangential force (eV/A)         0.000160
  left and right image   0.827320  0.827307 A
 TANGENT                                        CHAIN-FORCE (eV/Angst)
 -----------------------------------------------------------------------------------
      0.00016      0.98375     -0.00010        -0.000000     -0.000157      0.000000
      0.00059     -0.00337     -0.00118        -0.000000      0.000001      0.000000
     -0.00056     -0.00339      0.00126         0.000000      0.000001     -0.000000
      0.00001      0.00610     -0.00001        -0.000000     -0.000001      0.000000
      0.05499     -0.04334      0.04171        -0.000009      0.000007     -0.000007
     -0.05494     -0.04328     -0.04156         0.000009      0.000007      0.000007
     -0.00008     -0.07010      0.00009         0.000000      0.000011     -0.000000
      0.00007     -0.03639     -0.00004        -0.000000      0.000006      0.000000
     -0.00004     -0.00839      0.00003         0.000000      0.000001     -0.000000
      0.02669     -0.02624      0.03016        -0.000004      0.000004     -0.000005
     -0.00145     -0.01802      0.00722         0.000000      0.000003     -0.000001
      0.00050     -0.00500     -0.00299        -0.000000      0.000001      0.000000
     -0.00053     -0.00497      0.00302         0.000000      0.000001     -0.000000
      0.00002     -0.00156     -0.00006        -0.000000      0.000000      0.000000
     -0.00006     -0.01251     -0.00001         0.000000      0.000002      0.000000
     -0.00003     -0.00218      0.00007         0.000000      0.000000     -0.000000
     -0.00002     -0.01116      0.00001         0.000000      0.000002     -0.000000
      0.00131     -0.01802     -0.00719        -0.000000      0.000003      0.000001
     -0.02670     -0.02629     -0.03025         0.000004      0.000004      0.000005
     -0.00004     -0.03380     -0.00010         0.000000      0.000005      0.000000
     -0.00001     -0.00918     -0.00001         0.000000      0.000001      0.000000
     -0.00002     -0.01040     -0.00005         0.000000      0.000002      0.000000
     -0.00005     -0.01837     -0.00003         0.000000      0.000003      0.000000
      0.00002     -0.05719      0.00004        -0.000000      0.000009     -0.000000
      0.00007      0.01665     -0.00001        -0.000000     -0.000003      0.000000
      0.00007     -0.04012     -0.00007        -0.000000      0.000006      0.000000
      0.00003      0.00545      0.00002        -0.000000     -0.000001     -0.000000
 -----------------------------------------------------------------------------------
 CHAIN + TOTAL  (eV/Angst)
 ----------------------------------------------
     -0.17734     -0.00009     -0.08799
     -0.01343      0.00178      0.00121
     -0.01346     -0.00190      0.00127
     -0.04354      0.00018      0.10576
      0.02940     -0.00947      0.02736
      0.03028      0.00927      0.02570
     -0.02047     -0.00030      0.03304
     -0.00778     -0.00006     -0.02281
      0.03213      0.00044      0.00902
      0.02955      0.03313      0.04751
     -0.00768     -0.00266      0.00253
      0.01943     -0.00354      0.01314
      0.01940      0.00359      0.01357
     -0.01411     -0.00010     -0.07279
     -0.01890      0.00072     -0.00026
      0.01662     -0.00071      0.00069
     -0.00395     -0.00023      0.00428
     -0.00765      0.00222      0.00259
      0.02966     -0.03230      0.04729
      0.06479      0.00033     -0.15062
      0.02813      0.00053      0.00917
     -0.00043      0.00018     -0.01187
      0.04509     -0.00095      0.00850
     -0.01399     -0.00000     -0.02813
     -0.00899     -0.00019      0.01239
     -0.02041      0.00003      0.02112
      0.02764      0.00003     -0.01169
 ----------------------------------------------
 Quasi-Newton relaxation of ions (Broydens 2nd method)
  g(Force)  = 0.111E-01   g(Stress)= 0.000E+00

 retain information from N=  3 steps
 eigenvalues of (default step * inverse Hessian matrix)
  average eigenvalue of G=   1.4281
 eigenvalue spectrum of G is  3.7211  0.2815  0.2815


--------------------------------------------------------------------------------------------------------


 writing wavefunctions
     LOOP+:  cpu time   54.3437: real time   66.8172
    4ORBIT:  cpu time    0.0000: real time    0.0000

 total amount of memory used by VASP on root node   135756. kBytes
========================================================================

   base      :      30000. kBytes
   nonlr-proj:       1270. kBytes
   fftplans  :       2607. kBytes
   grid      :       5367. kBytes
   one-center:         93. kBytes
   wavefun   :      96419. kBytes
 
  
  
 General timing and accounting informations for this job:
 ========================================================
  
                  Total CPU time used (sec):     1897.650
                            User time (sec):     1891.176
                          System time (sec):        6.474
                         Elapsed time (sec):     1944.987
  
                   Maximum memory used (kb):      169076.
                   Average memory used (kb):           0.
  
                          Minor page faults:        82298
                          Major page faults:            0
                 Voluntary context switches:         6751
